/*--------------------------------*- C++ -*----------------------------------*\
  =========                 |
  \\      /  F ield         | OpenFOAM: The Open Source CFD Toolbox
   \\    /   O peration     | Website:  https://openfoam.org
    \\  /    A nd           | Version:  7
     \\/     M anipulation  |
\*---------------------------------------------------------------------------*/
FoamFile
{
    version     2.0;
    format      ascii;
    class       surfaceScalarField;
    location    "15";
    object      phi;
}
// * * * * * * * * * * * * * * * * * * * * * * * * * * * * * * * * * * * * * //

dimensions      [0 3 -1 0 0 0 0];

internalField   nonuniform List<scalar> 
20715
(
-1.28678e-05
1.28678e-05
9.66238e-12
-9.14668e-06
-3.72112e-06
1.77682e-11
2.29194e-05
-3.20661e-05
2.01587e-11
9.467e-05
-7.17506e-05
1.78273e-11
0.000212635
-0.000117965
9.21781e-12
0.000384145
-0.00017151
-8.32049e-12
0.000615896
-0.000231752
-3.88243e-11
0.000916092
-0.000300195
-8.43059e-11
0.00128491
-0.000368821
-1.45578e-10
-0.000450011
-2.27128e-10
0.00173492
-1.22902e-05
2.51579e-05
-7.24647e-06
-8.76482e-06
2.68983e-05
-6.62108e-05
0.000101532
-0.000146384
0.000223293
-0.000239726
0.000399627
-0.000347843
0.000637371
-0.000469496
0.000944843
-0.000607667
0.00132251
-0.000746483
-0.00091018
0.00178268
-1.1142e-05
3.62999e-05
-3.4659e-06
-1.64409e-05
3.48144e-05
-0.000104491
0.000115177
-0.000226747
0.000244475
-0.000369024
0.000430372
-0.00053374
0.00067998
-0.000719104
0.00100183
-0.000929516
0.00139695
-0.0011416
-0.00139033
0.0018771
-9.43579e-06
4.57357e-05
2.15258e-06
-2.80293e-05
4.65781e-05
-0.000148917
0.000135442
-0.000315611
0.000275906
-0.000509488
0.000475943
-0.000733777
0.000743051
-0.000986213
0.00108604
-0.0012725
0.00150678
-0.00156234
-0.00189964
0.00201608
-7.18995e-06
5.29256e-05
9.55124e-06
-4.47704e-05
6.20578e-05
-0.000201423
0.000162086
-0.000415639
0.000317181
-0.000664583
0.000535694
-0.000952289
0.000825591
-0.00127611
0.00119597
-0.00164289
0.00164984
-0.00201621
-0.00244631
0.00219652
-4.42666e-06
5.73523e-05
1.86482e-05
-6.78453e-05
8.10819e-05
-0.000263857
0.000194794
-0.000529352
0.000367771
-0.00083756
0.000608779
-0.0011933
0.000926299
-0.00159363
0.00132968
-0.00204626
0.00182329
-0.00250983
-0.00303734
0.00241432
-1.14954e-06
5.85018e-05
2.9349e-05
-9.83438e-05
0.000103442
-0.00033795
0.000233184
-0.000659094
0.000427031
-0.00103141
0.000694168
-0.00146043
0.00104359
-0.00194305
0.00148475
-0.00248743
0.00202365
-0.00304872
-0.00367817
0.00266449
2.53928e-06
5.59626e-05
4.15423e-05
-0.000137347
0.000128898
-0.000425305
0.000276812
-0.000807008
0.00049421
-0.00124881
0.000790659
-0.00175688
0.0011756
-0.00232799
0.00165842
-0.00297026
0.00224685
-0.00363715
-0.00437257
0.00294125
6.64151e-06
4.9321e-05
5.51069e-05
-0.000185812
0.000157181
-0.000527379
0.000325179
-0.000975007
0.000568464
-0.00149209
0.0008969
-0.00208532
0.00132025
-0.00275134
0.00184755
-0.00349756
0.00248833
-0.00427793
-0.00512236
0.00323812
1.11307e-05
3.81904e-05
6.99111e-05
-0.000244593
0.000187997
-0.000645465
0.000377741
-0.00116475
0.000648865
-0.00176321
0.0010114
-0.00244786
0.00147526
-0.00321519
0.00204874
-0.00407104
0.00274309
-0.00497228
-0.00592733
0.00354806
1.59583e-05
2.2232e-05
8.58149e-05
-0.000314449
0.000221035
-0.000780686
0.000433912
-0.00137763
0.000734415
-0.00206372
0.00113257
-0.00284601
0.00163816
-0.00372078
0.00225834
-0.00469122
0.00300586
-0.00571979
-0.00678519
0.00386371
2.10817e-05
1.15035e-06
0.000102673
-0.00039604
0.000255967
-0.00093398
0.000493074
-0.00161473
0.000824058
-0.0023947
0.00125871
-0.00328067
0.00180637
-0.00426844
0.00247259
-0.00535745
0.00327116
-0.00651837
-0.00769156
0.00417754
2.64585e-05
-2.53082e-05
0.000120335
-0.000489917
0.000292451
-0.0011061
0.000554583
-0.00187687
0.000916691
-0.00275681
0.00138806
-0.00375203
0.00197719
-0.00485757
0.00268762
-0.00606787
0.00353351
-0.00736426
-0.00864013
0.00448208
3.20471e-05
-5.73553e-05
0.000138651
-0.000596521
0.000330139
-0.00129758
0.000617775
-0.0021645
0.00101117
-0.00315021
0.00151881
-0.00425967
0.00214791
-0.00548668
0.00289958
-0.00681953
0.00378751
-0.00825219
-0.00962286
0.00477024
3.78064e-05
-9.51617e-05
0.000157466
-0.000716181
0.000368675
-0.00150879
0.00068197
-0.0024778
0.00110634
-0.00357458
0.00164911
-0.00480243
0.00231577
-0.00615335
0.0031047
-0.00760846
0.00402801
-0.0091755
-0.0106303
0.00503546
4.36962e-05
-0.000138858
0.000176629
-0.000849113
0.0004077
-0.00173986
0.000746478
-0.00281658
0.00120102
-0.00402912
0.0017771
-0.00537852
0.00247806
-0.0068543
0.00329938
-0.00842977
0.00425025
-0.0101264
-0.0116522
0.00527216
4.96773e-05
-0.000188535
0.000195986
-0.000995422
0.000446851
-0.00199073
0.000810604
-0.00318033
0.00129401
-0.00451253
0.00190096
-0.00598547
0.00263213
-0.00758546
0.00348024
-0.00927789
0.00444993
-0.0110961
-0.0126783
0.00547605
5.57111e-05
-0.000244246
0.000215384
-0.00115509
0.000485766
-0.00226111
0.000873649
-0.00356821
0.00138415
-0.00502303
0.00201887
-0.00662019
0.00277546
-0.00834206
0.00364427
-0.0101467
0.00462317
-0.012075
-0.0136995
0.00564429
6.17596e-05
-0.000306006
0.000234672
-0.00132801
0.000524079
-0.00255052
0.000934917
-0.00397905
0.00147026
-0.00555837
0.00212907
-0.007279
0.00290573
-0.00911872
0.00378892
-0.0110299
0.00476704
-0.0130531
-0.0147108
0.00577834
6.77851e-05
-0.000373791
0.000253696
-0.00151392
0.000561428
-0.00285825
0.000993718
-0.00441134
0.00155121
-0.00611587
0.00222988
-0.00795766
0.0030207
-0.00990955
0.00391162
-0.0119208
0.00488251
-0.014024
-0.0157143
0.00588602
7.34349e-05
-0.000447226
0.000271712
-0.00171219
0.000596692
-0.00318323
0.00104859
-0.00486323
0.00162525
-0.00669253
0.00231931
-0.00865172
0.00311825
-0.0107085
0.00400893
-0.0128115
0.00497271
-0.0149878
-0.0169052
0.00616363
7.92575e-05
-0.000526483
0.000289679
-0.00192262
0.000630941
-0.00352449
0.00110035
-0.00533264
0.00169259
-0.00728477
0.00239669
-0.00935582
0.00319649
-0.0115083
0.004077
-0.013692
0.00501337
-0.0159241
-0.0179977
0.00610586
8.49405e-05
-0.000611424
0.000306918
-0.00214459
0.00066314
-0.00388071
0.00114766
-0.00581717
0.0017517
-0.0078888
0.00246045
-0.0100646
0.00325417
-0.012302
0.00411514
-0.014553
0.005013
-0.016822
-0.018995
0.00601027
9.04449e-05
-0.000701869
0.000323276
-0.00237743
0.000692943
-0.00425038
0.00118993
-0.00631416
0.00180171
-0.00850058
0.00250962
-0.0107725
0.00329053
-0.0130829
0.00412401
-0.0153865
0.00497841
-0.0176764
-0.019905
0.00588843
9.57306e-05
-0.000797599
0.000338601
-0.0026203
0.000720015
-0.0046318
0.0012266
-0.00682074
0.00184191
-0.0091159
0.00254347
-0.011474
0.00330522
-0.0138447
0.00410454
-0.0161858
0.00491106
-0.0184829
-0.0207348
0.00574088
0.000100757
-0.000898356
0.000352741
-0.00287228
0.000744035
-0.00502309
0.00125715
-0.00733385
0.00187168
-0.00973042
0.00256149
-0.0121639
0.00329822
-0.0145814
0.00405782
-0.0169454
0.00481277
-0.0192379
-0.0214899
0.00556784
0.000105481
-0.00100384
0.000365548
-0.00313235
0.000764696
-0.00542224
0.00128115
-0.00785031
0.00189052
-0.0103398
0.00256342
-0.0128368
0.0032698
-0.0152878
0.00398513
-0.0176607
0.00468567
-0.0199384
-0.0221743
0.0053701
0.000109861
-0.0011137
0.000376874
-0.00339936
0.000781714
-0.00582708
0.0012982
-0.00836679
0.0018981
-0.0109397
0.0025492
-0.0134878
0.00322053
-0.0159591
0.003888
-0.0183282
0.00453209
-0.0205825
-0.0227913
0.00514911
0.000113853
-0.00122755
0.000386578
-0.00367209
0.00079483
-0.00623533
0.00130798
-0.00887994
0.00189421
-0.0115259
0.00251899
-0.0141126
0.00315123
-0.0165913
0.0037681
-0.018945
0.00435451
-0.0211689
-0.0233436
0.00490678
0.000117412
-0.00134496
0.000394523
-0.0039492
0.000803812
-0.00664462
0.00131025
-0.00938638
0.00187876
-0.0120944
0.00247315
-0.014707
0.00306291
-0.0171811
0.00362723
-0.0195094
0.00415542
-0.0216971
-0.0238334
0.00464528
0.000120496
-0.00146546
0.000400583
-0.00422928
0.000808462
-0.0070525
0.00130485
-0.00988276
0.00185182
-0.0126414
0.0024122
-0.0152674
0.00295677
-0.0177257
0.0034673
-0.0200199
0.00393734
-0.0221671
-0.024263
0.00436693
0.00012306
-0.00158852
0.000404641
-0.00451086
0.000808621
-0.00745648
0.00129169
-0.0103658
0.00181357
-0.0131633
0.00233683
-0.0157907
0.00283411
-0.0182229
0.00329023
-0.020476
0.00370269
-0.0225796
-0.0246344
0.00407403
0.000125064
-0.00171358
0.000406592
-0.00479239
0.000804166
-0.00785405
0.00127076
-0.0108324
0.00176434
-0.0136569
0.00224783
-0.0162742
0.00269633
-0.0186714
0.00309794
-0.0208776
0.00345377
-0.0229354
-0.0249494
0.00376879
0.000126467
-0.00184005
0.000406347
-0.00507227
0.000795018
-0.00824272
0.00124215
-0.0112796
0.00170452
-0.0141192
0.00214612
-0.0167158
0.00254487
-0.0190702
0.00289232
-0.0212251
0.00319276
-0.0232359
-0.0252099
0.00345332
0.000127232
-0.00196728
0.000403832
-0.00534887
0.000781142
-0.00862003
0.001206
-0.0117044
0.00163462
-0.0145478
0.00203266
-0.0171138
0.0023812
-0.0194187
0.00267518
-0.0215191
0.00292168
-0.0234824
-0.0254178
0.00312953
0.000127326
-0.00209461
0.000398992
-0.00562054
0.000762545
-0.00898359
0.00116253
-0.0121044
0.00155524
-0.0149406
0.0019085
-0.0174671
0.00220675
-0.019717
0.00244825
-0.0217606
0.00264235
-0.0236765
-0.0255746
0.00279919
0.000126719
-0.00222133
0.000391788
-0.00588561
0.000739278
-0.00933108
0.00111202
-0.0124771
0.00146701
-0.0152955
0.00177468
-0.0177748
0.00202295
-0.0199652
0.00221314
-0.0219507
0.00235647
-0.0238198
-0.0256821
0.0024639
0.000125386
-0.00234671
0.000382205
-0.00614243
0.000711435
-0.00966031
0.00105482
-0.0128205
0.00137063
-0.0156114
0.00163228
-0.0180364
0.00183114
-0.0201641
0.00197135
-0.022091
0.00206556
-0.023914
-0.0257416
0.00212511
0.000123307
-0.00247002
0.000370244
-0.00638936
0.000679148
-0.00996921
0.000991318
-0.0131327
0.00126683
-0.0158869
0.00148236
-0.0182519
0.00163264
-0.0203144
0.00172429
-0.0221826
0.00177099
-0.0239607
-0.0257547
0.00178409
0.000120469
-0.00259049
0.000355931
-0.00662482
0.000642589
-0.0102559
0.000921947
-0.0134121
0.00115637
-0.0161213
0.00132595
-0.0184215
0.00142865
-0.0204171
0.00147322
-0.0222272
0.00147399
-0.0239615
-0.0257227
0.00144202
0.000115863
-0.00270635
0.000337832
-0.00684679
0.000600407
-0.0105184
0.000845843
-0.0136575
0.00103912
-0.0163146
0.00116375
-0.0185461
0.00122069
-0.020474
0.00122041
-0.0222269
0.00117755
-0.0239186
-0.0256478
0.00110264
0.000111437
-0.00281779
0.000318899
-0.00705426
0.000555891
-0.0107554
0.000766117
-0.0138677
0.000917592
-0.016466
0.000997355
-0.0186259
0.0010091
-0.0204858
0.000964726
-0.0221825
0.000878904
-0.0238328
-0.0255304
0.000761438
0.000106235
-0.00292403
0.000297787
-0.00724581
0.000507788
-0.0109654
0.000681974
-0.0140419
0.000791665
-0.0165757
0.000827367
-0.0186616
0.000795235
-0.0204536
0.00070823
-0.0220955
0.000580821
-0.0237054
-0.0253715
0.000421983
0.000100272
-0.0030243
0.000274599
-0.00742014
0.000456386
-0.0111472
0.000593936
-0.0141795
0.000662077
-0.0166439
0.000654665
-0.0186542
0.000580006
-0.020379
0.000451806
-0.0219673
0.000284108
-0.0235377
-0.0251724
8.50152e-05
9.35662e-05
-0.00311786
0.000249454
-0.00757602
0.000401987
-0.0112998
0.000502526
-0.01428
0.000529539
-0.0166709
0.00048007
-0.0186047
0.000364254
-0.0202632
0.00019625
-0.0217993
-1.01808e-05
-0.0233313
-0.0249339
-0.000248719
8.6145e-05
-0.00320401
0.000222484
-0.00771236
0.000344905
-0.0114222
0.000408265
-0.0143434
0.000394736
-0.0166574
0.000304353
-0.0185143
0.000148755
-0.0201076
-5.77665e-05
-0.0215928
-0.000302307
-0.0230867
-0.0246575
-0.000578672
7.80407e-05
-0.00328205
0.000193833
-0.00782816
0.000285463
-0.0115138
0.000311664
-0.0143696
0.000258322
-0.016604
0.00012823
-0.0183842
-6.57768e-05
-0.0199136
-0.000309444
-0.0213491
-0.000590757
-0.0228054
-0.024344
-0.000904258
6.92915e-05
-0.00335134
0.000163656
-0.00792252
0.000223992
-0.0115741
0.000213225
-0.0143588
0.000120917
-0.0165117
-4.76326e-05
-0.0182157
-0.000278687
-0.0196825
-0.00055829
-0.0210695
-0.000875279
-0.0224884
-0.0239943
-0.00122496
5.99412e-05
-0.00341128
0.000132116
-0.00799469
0.000160822
-0.0116029
0.000113435
-0.0143114
-1.68911e-05
-0.0163814
-0.000222609
-0.01801
-0.000489377
-0.0194157
-0.00080371
-0.0207552
-0.00115536
-0.0221368
-0.0236094
-0.00154032
5.0038e-05
-0.00346132
9.93827e-05
-0.00804404
9.62828e-05
-0.0115998
1.27648e-05
-0.0142279
-0.000154551
-0.0162141
-0.000396135
-0.0177684
-0.000697291
-0.0191146
-0.00104518
-0.0204073
-0.00143052
-0.0217514
-0.02319
-0.00184989
3.96347e-05
-0.00350095
6.56312e-05
-0.00807004
3.07037e-05
-0.0115648
-8.83368e-05
-0.0141088
-0.000291546
-0.0160109
-0.000567679
-0.0174923
-0.00090192
-0.0187803
-0.00128222
-0.020027
-0.00170031
-0.0213333
-0.022737
-0.00215328
2.87877e-05
-0.00352974
3.10405e-05
-0.00807229
-3.56063e-05
-0.0114982
-0.00018944
-0.013955
-0.000427394
-0.0157729
-0.000736752
-0.0171829
-0.00110279
-0.0184143
-0.00151436
-0.0196154
-0.0019643
-0.0208834
-0.0222512
-0.00245012
1.75573e-05
-0.0035473
-4.17075e-06
-0.00805056
-0.000102325
-0.0114
-0.000290136
-0.0137672
-0.000561644
-0.0155014
-0.000902908
-0.0168416
-0.00129947
-0.0180177
-0.00174118
-0.0191737
-0.00222205
-0.0204025
-0.0217332
-0.00274004
5.99514e-06
-0.00355329
-3.99339e-05
-0.00800463
-0.000169151
-0.0112708
-0.000390042
-0.0135463
-0.000693882
-0.0151976
-0.00106573
-0.0164698
-0.00149155
-0.0175919
-0.00196225
-0.018703
-0.00247315
-0.0198916
-0.0211837
-0.00302271
-5.83856e-06
-0.00354746
-7.59676e-05
-0.0079345
-0.000235792
-0.011111
-0.000488793
-0.0132933
-0.000823723
-0.0148626
-0.00122486
-0.0160686
-0.00167868
-0.0171381
-0.00217719
-0.0182045
-0.00271718
-0.0193516
-0.0206031
-0.00329778
-1.7841e-05
-0.00352961
-0.000112125
-0.00784022
-0.00030197
-0.0109211
-0.000586051
-0.0130092
-0.000950813
-0.0144979
-0.00137993
-0.0156395
-0.0018605
-0.0166575
-0.00238562
-0.0176794
-0.00295371
-0.0187835
-0.0199919
-0.0035649
-2.99826e-05
-0.00349963
-0.000148235
-0.00772197
-0.000367419
-0.010702
-0.000681498
-0.0126951
-0.00107483
-0.0141045
-0.00153065
-0.0151837
-0.00203671
-0.0161515
-0.00258719
-0.0171289
-0.00318228
-0.0181885
-0.0193505
-0.00382368
-4.21914e-05
-0.00345744
-0.00018413
-0.00758003
-0.000431885
-0.0104542
-0.00077484
-0.0123522
-0.00119547
-0.0136839
-0.00167674
-0.0147024
-0.00220705
-0.0156211
-0.00278158
-0.0165544
-0.00340246
-0.0175676
-0.0186792
-0.00407376
-5.44022e-05
-0.00340304
-0.000219647
-0.00741478
-0.000495127
-0.0101787
-0.000865802
-0.0119815
-0.00131247
-0.0132372
-0.00181794
-0.014197
-0.00237128
-0.0150678
-0.0029685
-0.0159572
-0.00361371
-0.0169224
-0.0179787
-0.00431424
-6.6548e-05
-0.00333649
-0.000254627
-0.0072267
-0.000556919
-0.00987643
-0.000954131
-0.0115843
-0.00142558
-0.0127658
-0.00195404
-0.0136685
-0.00252922
-0.0144926
-0.00314771
-0.0153387
-0.00381433
-0.0162557
-0.0172488
-0.00454421
-8.02015e-05
-0.00325629
-0.000291103
-0.0070158
-0.000619161
-0.00954837
-0.00104131
-0.0111621
-0.00153577
-0.0122713
-0.00208544
-0.0131189
-0.00268072
-0.0138974
-0.00331856
-0.0147008
-0.00399903
-0.0155753
-0.0165287
-0.00471909
-9.20095e-05
-0.00316428
-0.000324521
-0.00678329
-0.000677362
-0.00919553
-0.00112362
-0.0107159
-0.00164039
-0.0117546
-0.00221074
-0.0125485
-0.00282576
-0.0132823
-0.00348291
-0.0140437
-0.00418298
-0.0148752
-0.0157877
-0.00492404
-0.000103588
-0.00306069
-0.000356988
-0.00652989
-0.000733518
-0.008819
-0.00120264
-0.0102468
-0.0017405
-0.0112167
-0.00233039
-0.0119586
-0.00296414
-0.0126486
-0.00363979
-0.013368
-0.00435883
-0.0141562
-0.0150253
-0.0051212
-0.000114875
-0.00294582
-0.000388372
-0.00625639
-0.000787453
-0.00841992
-0.00127819
-0.00975602
-0.00183591
-0.010659
-0.00244423
-0.0113503
-0.0030957
-0.0119971
-0.00378892
-0.0126748
-0.00452577
-0.0134193
-0.0142432
-0.00530787
-0.000125813
-0.00282
-0.000418545
-0.00596366
-0.000839005
-0.00799946
-0.0013501
-0.00924493
-0.00192647
-0.0100826
-0.0025521
-0.0107247
-0.00322026
-0.0113289
-0.00393009
-0.011965
-0.0046838
-0.0126656
-0.013443
-0.00548399
-0.000136347
-0.00268366
-0.000447392
-0.00565262
-0.000888022
-0.00755883
-0.0014182
-0.00871474
-0.00201203
-0.00948878
-0.00265388
-0.0100828
-0.00333771
-0.0106451
-0.00406317
-0.0112395
-0.00483281
-0.011896
-0.0126259
-0.00564992
-0.000146425
-0.00253723
-0.000474803
-0.00532424
-0.000934367
-0.00709926
-0.00148237
-0.00816674
-0.00209246
-0.00887869
-0.00274943
-0.00942586
-0.00344791
-0.00994663
-0.00418804
-0.0104994
-0.00497267
-0.0111113
-0.0117929
-0.00580564
-0.000155996
-0.00238123
-0.000500676
-0.00497956
-0.000977911
-0.00662203
-0.00154247
-0.00760219
-0.00216764
-0.00825351
-0.00283864
-0.00875486
-0.00355076
-0.00923452
-0.00430458
-0.00974556
-0.00510326
-0.0103127
-0.0109451
-0.00595108
-0.000165015
-0.00221622
-0.000524917
-0.00461966
-0.00101854
-0.00612841
-0.00159837
-0.00702235
-0.00223745
-0.00761444
-0.00292141
-0.0080709
-0.00364614
-0.00850978
-0.00441268
-0.00897903
-0.00522448
-0.00950085
-0.0100835
-0.00608612
-0.000173439
-0.00204278
-0.000547439
-0.00424566
-0.00105614
-0.0056197
-0.00164998
-0.00642851
-0.00230179
-0.00696263
-0.00299763
-0.00737506
-0.00373397
-0.00777344
-0.00451223
-0.00820076
-0.00533618
-0.0086769
-0.00920899
-0.00621065
-0.000181227
-0.00186155
-0.000568165
-0.00385872
-0.00109063
-0.00509724
-0.0016972
-0.00582194
-0.00236057
-0.00629926
-0.00306721
-0.00666842
-0.00381414
-0.00702652
-0.00460313
-0.00741177
-0.00543824
-0.0078418
-0.00832271
-0.00632451
-0.000188343
-0.00167321
-0.000587023
-0.00346004
-0.00112191
-0.00456235
-0.00173994
-0.00520391
-0.00241371
-0.0056255
-0.00313009
-0.00595204
-0.00388657
-0.00627004
-0.00468528
-0.00661306
-0.00553053
-0.00699655
-0.00742569
-0.00642755
-0.000194755
-0.00147846
-0.000603949
-0.00305084
-0.00114991
-0.00401639
-0.00177813
-0.00457569
-0.00246113
-0.00494249
-0.00318617
-0.00522701
-0.00395117
-0.00550504
-0.00475857
-0.00580565
-0.00561292
-0.00614221
-0.00651901
-0.00651959
-0.000200434
-0.00127802
-0.000618888
-0.00263239
-0.00117456
-0.00346072
-0.00181169
-0.00393856
-0.00250277
-0.00425141
-0.00323539
-0.00449439
-0.00400787
-0.00473256
-0.00482292
-0.0049906
-0.00568529
-0.00527984
-0.00560381
-0.0066005
-0.000205353
-0.00107267
-0.000631789
-0.00220596
-0.0011958
-0.00289671
-0.00184057
-0.00329379
-0.00253857
-0.0035534
-0.0032777
-0.00375526
-0.0040566
-0.00395365
-0.00487824
-0.00416896
-0.00574754
-0.00441055
-0.00468122
-0.00667012
-0.000209492
-0.000863177
-0.000642611
-0.00177284
-0.00121358
-0.00232574
-0.00186471
-0.00264266
-0.00256849
-0.00284963
-0.00331303
-0.00301072
-0.00409731
-0.00316938
-0.00492446
-0.0033418
-0.00579956
-0.00353545
-0.00375246
-0.00672833
-0.000212831
-0.000650346
-0.000651319
-0.00133435
-0.00122787
-0.00174919
-0.00188409
-0.00198644
-0.00259247
-0.00214125
-0.00334136
-0.00226183
-0.00412993
-0.0023808
-0.00496151
-0.00251023
-0.00584128
-0.00265568
-0.00281871
-0.00677502
-0.000215357
-0.000434989
-0.000657886
-0.00089182
-0.00123862
-0.00116845
-0.00189865
-0.00132641
-0.00261049
-0.00142941
-0.00336263
-0.00150969
-0.00415444
-0.00158899
-0.00498934
-0.00167533
-0.00587261
-0.0017724
-0.00188122
-0.0068101
-0.000217059
-0.000217929
-0.00066229
-0.000446589
-0.00124582
-0.000584922
-0.00190839
-0.000663837
-0.00262253
-0.000715278
-0.00337683
-0.000755384
-0.00417079
-0.000795029
-0.0050079
-0.000838216
-0.00589352
-0.000886785
-0.000941235
-0.00683351
-0.000217929
-5.47145e-12
-0.000664518
-1.76944e-11
-0.00124944
-2.76294e-11
-0.00191328
-3.30626e-11
-0.00262856
-3.69636e-11
-0.00338394
-4.25641e-11
-0.00417897
-4.76754e-11
-0.00501719
-5.16998e-11
-0.00590397
-5.40045e-11
-5.44136e-11
-0.0068452
-0.000217929
0.000217929
-0.000664518
0.000446589
-0.00124944
0.000584922
-0.00191328
0.000663837
-0.00262856
0.000715278
-0.00338394
0.000755384
-0.00417897
0.000795029
-0.00501719
0.000838216
-0.00590397
0.000886785
0.000941235
-0.0068452
-0.000217059
0.000434989
-0.00066229
0.00089182
-0.00124582
0.00116845
-0.00190839
0.00132641
-0.00262253
0.00142941
-0.00337683
0.00150969
-0.00417079
0.00158899
-0.0050079
0.00167533
-0.00589352
0.0017724
0.00188122
-0.00683351
-0.000215357
0.000650346
-0.000657886
0.00133435
-0.00123862
0.00174919
-0.00189865
0.00198644
-0.00261049
0.00214125
-0.00336263
0.00226183
-0.00415444
0.0023808
-0.00498934
0.00251023
-0.00587261
0.00265568
0.00281871
-0.0068101
-0.000212831
0.000863177
-0.000651319
0.00177284
-0.00122787
0.00232574
-0.00188409
0.00264266
-0.00259247
0.00284963
-0.00334136
0.00301072
-0.00412993
0.00316938
-0.00496151
0.0033418
-0.00584128
0.00353545
0.00375246
-0.00677502
-0.000209492
0.00107267
-0.000642611
0.00220595
-0.00121358
0.00289671
-0.00186471
0.00329379
-0.00256849
0.0035534
-0.00331303
0.00375526
-0.00409731
0.00395365
-0.00492446
0.00416896
-0.00579956
0.00441055
0.00468122
-0.00672833
-0.000205353
0.00127802
-0.000631789
0.00263239
-0.0011958
0.00346072
-0.00184057
0.00393856
-0.00253857
0.00425141
-0.0032777
0.00449439
-0.0040566
0.00473256
-0.00487824
0.0049906
-0.00574754
0.00527984
0.00560381
-0.00667012
-0.000200434
0.00147846
-0.000618888
0.00305084
-0.00117456
0.00401639
-0.00181169
0.00457569
-0.00250277
0.00494249
-0.00323539
0.00522701
-0.00400787
0.00550504
-0.00482292
0.00580565
-0.00568529
0.00614221
0.00651901
-0.0066005
-0.000194755
0.00167321
-0.000603949
0.00346004
-0.00114991
0.00456235
-0.00177813
0.00520391
-0.00246113
0.0056255
-0.00318617
0.00595204
-0.00395117
0.00627004
-0.00475857
0.00661306
-0.00561292
0.00699655
0.00742569
-0.00651959
-0.000188343
0.00186155
-0.000587023
0.00385872
-0.00112191
0.00509724
-0.00173994
0.00582194
-0.00241371
0.00629926
-0.00313009
0.00666842
-0.00388657
0.00702652
-0.00468528
0.00741177
-0.00553053
0.0078418
0.00832271
-0.00642755
-0.000181227
0.00204278
-0.000568165
0.00424566
-0.00109063
0.0056197
-0.0016972
0.00642851
-0.00236057
0.00696263
-0.00306721
0.00737506
-0.00381414
0.00777344
-0.00460313
0.00820076
-0.00543824
0.0086769
0.00920899
-0.00632451
-0.000173439
0.00221622
-0.000547439
0.00461966
-0.00105614
0.00612841
-0.00164998
0.00702235
-0.00230179
0.00761444
-0.00299763
0.0080709
-0.00373397
0.00850978
-0.00451223
0.00897903
-0.00533618
0.00950085
0.0100835
-0.00621065
-0.000165015
0.00238123
-0.000524917
0.00497956
-0.00101854
0.00662203
-0.00159837
0.00760219
-0.00223745
0.00825351
-0.00292141
0.00875486
-0.00364614
0.00923452
-0.00441268
0.00974556
-0.00522448
0.0103127
0.0109451
-0.00608612
-0.000155996
0.00253723
-0.000500676
0.00532424
-0.000977911
0.00709926
-0.00154247
0.00816674
-0.00216764
0.00887869
-0.00283864
0.00942586
-0.00355076
0.00994663
-0.00430458
0.0104994
-0.00510326
0.0111113
0.0117929
-0.00595108
-0.000146425
0.00268366
-0.000474803
0.00565262
-0.000934367
0.00755883
-0.00148237
0.00871474
-0.00209246
0.00948878
-0.00274943
0.0100828
-0.00344791
0.0106451
-0.00418804
0.0112395
-0.00497267
0.011896
0.0126259
-0.00580564
-0.000136347
0.00282
-0.000447392
0.00596366
-0.000888022
0.00799946
-0.0014182
0.00924493
-0.00201203
0.0100826
-0.00265388
0.0107247
-0.00333771
0.0113289
-0.00406317
0.011965
-0.00483281
0.0126656
0.013443
-0.00564992
-0.000125813
0.00294582
-0.000418545
0.00625639
-0.000839005
0.00841992
-0.0013501
0.00975602
-0.00192647
0.010659
-0.0025521
0.0113503
-0.00322026
0.0119971
-0.00393009
0.0126748
-0.0046838
0.0134193
0.0142432
-0.00548399
-0.000114875
0.00306069
-0.000388372
0.00652989
-0.000787453
0.008819
-0.00127819
0.0102468
-0.00183591
0.0112167
-0.00244423
0.0119586
-0.0030957
0.0126486
-0.00378892
0.013368
-0.00452577
0.0141562
0.0150253
-0.00530787
-0.000103588
0.00316428
-0.000356988
0.00678329
-0.000733518
0.00919553
-0.00120264
0.0107159
-0.0017405
0.0117546
-0.00233039
0.0125485
-0.00296414
0.0132823
-0.00363979
0.0140437
-0.00435883
0.0148752
0.0157877
-0.0051212
-9.20095e-05
0.00325629
-0.000324521
0.0070158
-0.000677362
0.00954837
-0.00112362
0.0111621
-0.00164039
0.0122713
-0.00221074
0.0131189
-0.00282576
0.0138974
-0.00348291
0.0147008
-0.00418298
0.0155753
0.0165287
-0.00492404
-8.02015e-05
0.00333649
-0.000291103
0.0072267
-0.000619161
0.00987643
-0.00104131
0.0115843
-0.00153577
0.0127658
-0.00208544
0.0136685
-0.00268072
0.0144926
-0.00331856
0.0153387
-0.00399903
0.0162557
0.0172488
-0.00471909
-6.6548e-05
0.00340304
-0.000254627
0.00741478
-0.000556919
0.0101787
-0.000954131
0.0119815
-0.00142558
0.0132372
-0.00195404
0.014197
-0.00252922
0.0150678
-0.00314771
0.0159572
-0.00381433
0.0169224
0.0179787
-0.00454421
-5.44022e-05
0.00345744
-0.000219647
0.00758003
-0.000495127
0.0104542
-0.000865802
0.0123522
-0.00131247
0.0136839
-0.00181794
0.0147024
-0.00237128
0.0156211
-0.0029685
0.0165544
-0.00361371
0.0175676
0.0186792
-0.00431424
-4.21914e-05
0.00349963
-0.00018413
0.00772197
-0.000431885
0.010702
-0.00077484
0.0126951
-0.00119547
0.0141045
-0.00167674
0.0151837
-0.00220705
0.0161515
-0.00278158
0.0171289
-0.00340246
0.0181885
0.0193505
-0.00407376
-2.99826e-05
0.00352961
-0.000148235
0.00784022
-0.000367419
0.0109211
-0.000681498
0.0130092
-0.00107483
0.0144979
-0.00153065
0.0156395
-0.00203671
0.0166575
-0.00258719
0.0176794
-0.00318228
0.0187835
0.0199919
-0.00382368
-1.7841e-05
0.00354746
-0.000112125
0.0079345
-0.00030197
0.011111
-0.000586051
0.0132933
-0.000950813
0.0148626
-0.00137993
0.0160686
-0.0018605
0.0171381
-0.00238562
0.0182045
-0.00295371
0.0193516
0.0206031
-0.0035649
-5.83856e-06
0.00355329
-7.59676e-05
0.00800463
-0.000235792
0.0112708
-0.000488793
0.0135463
-0.000823723
0.0151976
-0.00122486
0.0164698
-0.00167868
0.0175919
-0.00217719
0.018703
-0.00271718
0.0198916
0.0211837
-0.00329778
5.99514e-06
0.0035473
-3.99339e-05
0.00805056
-0.000169151
0.0114
-0.000390042
0.0137672
-0.000693882
0.0155014
-0.00106573
0.0168416
-0.00149155
0.0180177
-0.00196225
0.0191737
-0.00247315
0.0204025
0.0217332
-0.00302271
1.75573e-05
0.00352974
-4.17075e-06
0.00807229
-0.000102325
0.0114982
-0.000290136
0.013955
-0.000561644
0.0157729
-0.000902908
0.0171829
-0.00129947
0.0184143
-0.00174118
0.0196154
-0.00222205
0.0208834
0.0222512
-0.00274004
2.87877e-05
0.00350095
3.10405e-05
0.00807004
-3.56063e-05
0.0115648
-0.00018944
0.0141088
-0.000427394
0.0160109
-0.000736752
0.0174923
-0.00110279
0.0187803
-0.00151436
0.020027
-0.0019643
0.0213333
0.022737
-0.00245012
3.96347e-05
0.00346132
6.56312e-05
0.00804404
3.07037e-05
0.0115998
-8.83368e-05
0.0142279
-0.000291546
0.0162141
-0.000567679
0.0177684
-0.00090192
0.0191146
-0.00128222
0.0204073
-0.00170031
0.0217514
0.02319
-0.00215328
5.0038e-05
0.00341128
9.93827e-05
0.00799469
9.62828e-05
0.0116029
1.27648e-05
0.0143114
-0.000154551
0.0163814
-0.000396135
0.01801
-0.000697291
0.0194157
-0.00104518
0.0207552
-0.00143052
0.0221368
0.0236094
-0.00184989
5.99412e-05
0.00335134
0.000132116
0.00792252
0.000160822
0.0115741
0.000113435
0.0143588
-1.68911e-05
0.0165117
-0.000222609
0.0182157
-0.000489377
0.0196825
-0.00080371
0.0210695
-0.00115536
0.0224884
0.0239943
-0.00154032
6.92915e-05
0.00328205
0.000163656
0.00782816
0.000223992
0.0115138
0.000213225
0.0143696
0.000120917
0.016604
-4.76326e-05
0.0183842
-0.000278687
0.0199136
-0.00055829
0.0213491
-0.000875279
0.0228054
0.024344
-0.00122496
7.80407e-05
0.00320401
0.000193833
0.00771236
0.000285463
0.0114222
0.000311664
0.0143434
0.000258322
0.0166574
0.00012823
0.0185143
-6.57768e-05
0.0201076
-0.000309444
0.0215928
-0.000590757
0.0230867
0.0246575
-0.000904258
8.6145e-05
0.00311786
0.000222484
0.00757602
0.000344905
0.0112998
0.000408265
0.01428
0.000394736
0.0166709
0.000304353
0.0186047
0.000148755
0.0202632
-5.77665e-05
0.0217993
-0.000302307
0.0233313
0.0249339
-0.000578672
9.35662e-05
0.0030243
0.000249454
0.00742014
0.000401987
0.0111472
0.000502526
0.0141795
0.000529539
0.0166439
0.00048007
0.0186542
0.000364254
0.020379
0.00019625
0.0219673
-1.01808e-05
0.0235377
0.0251724
-0.000248719
0.000100272
0.00292403
0.000274599
0.00724581
0.000456386
0.0109654
0.000593936
0.0140419
0.000662077
0.0165757
0.000654665
0.0186616
0.000580006
0.0204536
0.000451806
0.0220955
0.000284108
0.0237054
0.0253715
8.50152e-05
0.000106235
0.00281779
0.000297787
0.00705426
0.000507788
0.0107554
0.000681974
0.0138677
0.000791665
0.016466
0.000827367
0.0186259
0.000795235
0.0204858
0.00070823
0.0221825
0.000580821
0.0238328
0.0255304
0.000421983
0.000111437
0.00270635
0.000318899
0.00684679
0.000555891
0.0105184
0.000766117
0.0136575
0.000917592
0.0163146
0.000997355
0.0185461
0.0010091
0.020474
0.000964726
0.0222269
0.000878904
0.0239186
0.0256478
0.000761438
0.000115863
0.00259049
0.000337832
0.00662482
0.000600407
0.0102559
0.000845843
0.0134121
0.00103912
0.0161213
0.00116375
0.0184215
0.00122069
0.0204171
0.00122041
0.0222272
0.00117755
0.0239615
0.0257227
0.00110264
0.000120469
0.00247002
0.000355931
0.00638936
0.000642589
0.00996921
0.000921947
0.0131327
0.00115637
0.0158869
0.00132595
0.0182519
0.00142865
0.0203144
0.00147322
0.0221826
0.00147399
0.0239607
0.0257547
0.00144202
0.000123307
0.00234671
0.000370244
0.00614243
0.000679148
0.00966031
0.000991318
0.0128205
0.00126683
0.0156114
0.00148236
0.0180364
0.00163264
0.0201641
0.00172429
0.022091
0.00177099
0.023914
0.0257416
0.00178409
0.000125386
0.00222133
0.000382205
0.00588561
0.000711435
0.00933108
0.00105482
0.0124771
0.00137063
0.0152955
0.00163228
0.0177748
0.00183114
0.0199652
0.00197135
0.0219507
0.00206556
0.0238198
0.0256821
0.00212511
0.000126719
0.00209461
0.000391788
0.00562054
0.000739278
0.00898359
0.00111202
0.0121044
0.00146701
0.0149406
0.00177468
0.0174671
0.00202295
0.019717
0.00221314
0.0217606
0.00235647
0.0236765
0.0255746
0.0024639
0.000127326
0.00196728
0.000398992
0.00534887
0.000762545
0.00862003
0.00116253
0.0117044
0.00155524
0.0145478
0.0019085
0.0171138
0.00220675
0.0194187
0.00244825
0.0215191
0.00264235
0.0234824
0.0254178
0.00279919
0.000127232
0.00184005
0.000403832
0.00507227
0.000781142
0.00824272
0.001206
0.0112796
0.00163462
0.0141192
0.00203266
0.0167158
0.0023812
0.0190702
0.00267518
0.0212251
0.00292168
0.0232359
0.0252099
0.00312953
0.000126467
0.00171358
0.000406347
0.00479239
0.000795018
0.00785405
0.00124215
0.0108324
0.00170452
0.0136569
0.00214612
0.0162742
0.00254487
0.0186714
0.00289232
0.0208776
0.00319276