/*--------------------------------*- C++ -*----------------------------------*\
  =========                 |
  \\      /  F ield         | OpenFOAM: The Open Source CFD Toolbox
   \\    /   O peration     | Website:  https://openfoam.org
    \\  /    A nd           | Version:  7
     \\/     M anipulation  |
\*---------------------------------------------------------------------------*/
FoamFile
{
    version     2.0;
    format      ascii;
    class       volVectorField;
    location    "15";
    object      U;
}
// * * * * * * * * * * * * * * * * * * * * * * * * * * * * * * * * * * * * * //

dimensions      [0 1 -1 0 0 0 0];

internalField   nonuniform List<vector> 
10500
(
(-0.00461002 0.000537702 -5.85544e-21)
(-0.00631947 -0.000278057 8.22692e-21)
(0.00026217 -0.00130645 -4.53619e-20)
(0.0148491 -0.00244017 -3.88367e-20)
(0.0364651 -0.00344969 -1.06792e-20)
(0.0632385 -0.00437105 6.24241e-21)
(0.094067 -0.00517877 -3.40414e-20)
(0.128803 -0.0059005 -4.85343e-21)
(0.164399 -0.00636192 -1.01365e-20)
(0.204204 -0.00682901 7.63605e-21)
(-0.00460681 0.00158798 -9.78683e-21)
(-0.00585464 -0.000866968 -2.05018e-20)
(0.0014229 -0.00394298 -3.79525e-20)
(0.016772 -0.00732938 5.90689e-20)
(0.0392079 -0.0103393 2.6972e-20)
(0.066831 -0.0130824 -1.03358e-20)
(0.098523 -0.0154834 3.69855e-20)
(0.134177 -0.0176219 -4.36181e-20)
(0.170545 -0.0189898 -8.30864e-22)
(0.211593 -0.0203364 -1.41634e-20)
(-0.00459334 0.00256328 -6.4832e-20)
(-0.00491522 -0.00155413 6.49444e-20)
(0.00375139 -0.00665055 7.28569e-20)
(0.0206196 -0.0122455 -1.77365e-19)
(0.0446873 -0.0172001 -5.71245e-20)
(0.0739992 -0.0217017 1.32306e-19)
(0.107405 -0.0256297 1.74046e-20)
(0.144876 -0.0291049 1.09095e-19)
(0.18277 -0.0313307 4.76357e-20)
(0.226265 -0.0333934 1.17061e-20)
(-0.00455565 0.0034157 6.27084e-20)
(-0.0034819 -0.00240211 -1.12948e-19)
(0.00726162 -0.00947364 -1.2911e-19)
(0.0263957 -0.0172038 2.04564e-19)
(0.0528916 -0.0240104 1.4626e-20)
(0.0847101 -0.0301662 -7.58128e-21)
(0.120652 -0.0355116 1.51022e-19)
(0.160801 -0.0401916 1.24592e-20)
(0.200935 -0.0431971 -2.11075e-20)
(0.248008 -0.0457072 1.06626e-19)
(-0.0044732 0.00410035 -2.82737e-19)
(-0.0015262 -0.00346872 5.60984e-22)
(0.0119741 -0.0124516 -7.0709e-20)
(0.0341053 -0.0222148 -1.62491e-20)
(0.0638026 -0.0307449 2.23095e-19)
(0.0989137 -0.0384104 -3.43723e-19)
(0.138174 -0.0450222 -2.51365e-19)
(0.181806 -0.0507259 1.0294e-19)
(0.224838 -0.0544075 7.5342e-20)
(0.276505 -0.0569974 -7.19875e-20)
(-0.00431918 0.00457597 4.92695e-19)
(0.00098886 -0.00480485 1.28788e-19)
(0.0179155 -0.015617 4.82642e-19)
(0.0437547 -0.0272826 1.11035e-19)
(0.0773958 -0.037373 1.76668e-19)
(0.116543 -0.0463655 3.28013e-19)
(0.15985 -0.0540535 -1.27397e-19)
(0.207695 -0.060554 -2.69245e-19)
(0.254209 -0.0647874 3.16063e-20)
(0.311332 -0.0670011 1.47755e-19)
(-0.00406077 0.00480559 -1.54468e-19)
(0.00410798 -0.00645237 3.44352e-20)
(0.0251176 -0.0189938 -4.36732e-19)
(0.0553507 -0.0324034 1.41085e-19)
(0.0936397 -0.0438574 -1.52052e-19)
(0.137515 -0.0539584 2.74537e-20)
(0.185531 -0.0624964 1.16006e-19)
(0.238224 -0.0695259 9.44668e-21)
(0.288715 -0.0741714 -3.66563e-19)
(0.351959 -0.0754799 -2.3469e-19)
(-0.00366032 0.00476027 -1.87884e-19)
(0.00788336 -0.00844515 -3.75203e-19)
(0.0336165 -0.0225961 4.68564e-19)
(0.0688997 -0.0375639 -1.65105e-21)
(0.112495 -0.0501532 -2.07965e-19)
(0.161728 -0.0611108 -4.42125e-19)
(0.215037 -0.0702402 5.16065e-19)
(0.2731 -0.0774962 -2.51797e-19)
(0.327963 -0.0824033 1.79517e-19)
(0.397756 -0.0822267 1.95965e-20)
(-0.003077 0.00441894 1.21866e-19)
(0.0123728 -0.0108074 5.10401e-19)
(0.0434519 -0.0264264 -3.80611e-19)
(0.0844067 -0.0427402 -4.34225e-19)
(0.133915 -0.0562066 1.10954e-19)
(0.189061 -0.0677395 1.03311e-19)
(0.248157 -0.0771731 4.19842e-19)
(0.311984 -0.084326 3.12844e-19)
(0.3715 -0.0893373 -1.21113e-19)
(0.447998 -0.0870722 1.95653e-19)
(-0.00226629 0.00376579 -1.96682e-19)
(0.0176379 -0.0135493 -5.19074e-20)
(0.0546656 -0.0304741 -2.59606e-19)
(0.101874 -0.0478961 4.48421e-21)
(0.157841 -0.0619542 -1.42107e-20)
(0.219377 -0.0737554 1.93068e-19)
(0.284651 -0.0831827 4.4607e-20)
(0.354492 -0.0898852 4.06646e-19)
(0.418822 -0.0948384 1.18199e-19)
(0.501879 -0.0898914 -2.06413e-19)
(-0.0011808 0.00279223 2.05152e-20)
(0.0237433 -0.0166678 -4.97345e-19)
(0.0672998 -0.0347149 4.10424e-19)
(0.1213 -0.0529827 -2.24127e-19)
(0.184207 -0.0673227 -6.67505e-20)
(0.252518 -0.0790644 -2.52779e-20)
(0.32425 -0.0881572 1.44011e-20)
(0.400198 -0.0940552 -6.13934e-19)
(0.469376 -0.0987835 3.21643e-20)
(0.558518 -0.0906082 4.6457e-20)
(0.00022831 0.00149818 -4.8413e-19)
(0.0307549 -0.0201464 7.81181e-19)
(0.0813951 -0.0391101 -2.73822e-19)
(0.142677 -0.0579381 6.74265e-19)
(0.21293 -0.0722285 -6.20891e-19)
(0.288303 -0.0835677 -2.57583e-19)
(0.366654 -0.0919863 3.19439e-19)
(0.448635 -0.0967323 3.29351e-19)
(0.522569 -0.101062 -1.88911e-19)
(0.616989 -0.0891995 -1.7882e-19)
(0.0020104 -0.000108029 4.02469e-19)
(0.0387386 -0.0239549 -1.08717e-19)
(0.0969889 -0.0436061 5.16951e-19)
(0.165988 -0.0626866 -8.65386e-20)
(0.243914 -0.0765787 4.62926e-19)
(0.326532 -0.0871634 8.20883e-19)
(0.411532 -0.0945644 -3.99536e-19)
(0.499303 -0.0978318 3.50389e-20)
(0.577774 -0.101578 3.6546e-19)
(0.676333 -0.0856964 2.17543e-19)
(0.0042144 -0.00200984 -1.94934e-19)
(0.047758 -0.0280487 -5.94826e-19)
(0.114113 -0.0481347 -3.67634e-19)
(0.191208 -0.0671398 -4.1129e-19)
(0.277049 -0.0802717 -4.93617e-20)
(0.366979 -0.0897479 -7.15462e-19)
(0.458526 -0.0957924 2.17683e-19)
(0.551673 -0.0972918 -3.12305e-19)
(0.63434 -0.100252 -2.67425e-19)
(0.735589 -0.0801852 -4.09998e-20)
(0.00688787 -0.00418268 3.33197e-19)
(0.0578725 -0.0323698 -5.14205e-20)
(0.132791 -0.052613 -3.20188e-19)
(0.218296 -0.0711971 3.68112e-19)
(0.3122 -0.0831986 6.90372e-19)
(0.409396 -0.0912187 -6.33236e-20)
(0.507248 -0.0955821 -6.02021e-19)
(0.605197 -0.0950776 2.89216e-19)
(0.691606 -0.0970242 5.06825e-19)
(0.793817 -0.0728151 8.28311e-20)
(0.010076 -0.00659417 2.11987e-19)
(0.0691358 -0.0368464 8.07832e-20)
(0.153038 -0.0569447 1.13602e-19)
(0.247199 -0.0747469 -3.00162e-19)
(0.349218 -0.0852458 -5.1098e-19)
(0.453509 -0.0914768 8.29446e-19)
(0.557285 -0.0938596 4.35292e-19)
(0.659315 -0.0911856 -3.52959e-20)
(0.748909 -0.0918609 -3.174e-19)
(0.850132 -0.063805 -1.46667e-19)
(0.0138208 -0.0092046 5.51754e-19)
(0.0815932 -0.0413943 -1.37727e-19)
(0.174854 -0.0610212 1.75727e-19)
(0.277844 -0.077669 1.43895e-19)
(0.387926 -0.0862977 -9.24305e-20)
(0.499022 -0.0904301 1.15193e-19)
(0.608201 -0.0905698 2.08801e-19)
(0.71347 -0.0856458 3.57743e-19)
(0.805595 -0.0847472 -2.63243e-19)
(0.903703 -0.0534015 -9.29334e-20)
(0.0181601 -0.0119678 -8.9874e-19)
(0.0952808 -0.0459178 6.57082e-19)
(0.198227 -0.0647232 -3.47112e-19)
(0.310138 -0.0798364 -5.72991e-19)
(0.428125 -0.0862395 -1.04933e-19)
(0.545613 -0.0879971 -6.86514e-19)
(0.659543 -0.0856823 -7.42632e-20)
(0.767122 -0.0785247 -2.02324e-19)
(0.861027 -0.075662 5.40106e-19)
(0.953707 -0.0417773 -1.26919e-19)
(0.0231275 -0.0148317 -1.34571e-19)
(0.110223 -0.0503118 -3.0072e-19)
(0.223125 -0.0679235 8.96222e-19)
(0.343968 -0.0811192 8.29142e-19)
(0.469593 -0.0849612 -1.00023e-19)
(0.592942 -0.0841103 6.67958e-19)
(0.710847 -0.0791965 -1.64995e-19)
(0.819772 -0.0699245 6.1213e-20)
(0.914639 -0.0645723 3.23551e-19)
(0.999437 -0.0293176 6.12458e-19)
(0.0287483 -0.0177366 1.81703e-19)
(0.12643 -0.0544602 1.69435e-19)
(0.2495 -0.0704865 5.86178e-21)
(0.379196 -0.0813851 -2.8859e-19)
(0.512082 -0.08236 2.81972e-19)
(0.640646 -0.0787188 -2.24685e-19)
(0.761642 -0.071146 1.61301e-19)
(0.870966 -0.0599726 1.99819e-19)
(0.96601 -0.0516118 2.77457e-19)
(1.04131 -0.0179793 -1.97932e-19)
(0.0350322 -0.020609 -2.36625e-19)
(0.143886 -0.0582322 -8.4644e-20)
(0.277272 -0.0722671 -6.82917e-19)
(0.415655 -0.080501 3.48457e-19)
(0.555318 -0.0783423 -2.81195e-19)
(0.688347 -0.0717902 -4.25163e-19)
(0.811454 -0.0615933 -7.41998e-19)
(0.920228 -0.0488095 -2.27081e-19)
(1.01458 -0.0374525 8.3932e-19)
(1.08285 -0.011262 -4.70655e-20)
(0.0419876 -0.0233797 9.58934e-19)
(0.162566 -0.0614998 -3.98751e-19)
(0.306343 -0.0731271 3.59844e-19)
(0.453152 -0.078346 1.26877e-19)
(0.599006 -0.072834 9.62969e-19)
(0.735657 -0.0633158 3.67114e-20)
(0.85982 -0.0506208 7.57701e-19)
(0.96703 -0.0365848 -1.21343e-19)
(1.05887 -0.0232965 -2.8707e-19)
(1.12225 -0.00733371 -3.32939e-19)
(0.0496285 -0.0259885 -8.1079e-19)
(0.182439 -0.064145 7.65701e-19)
(0.336607 -0.0729398 -2.45742e-19)
(0.491486 -0.0748158 5.74451e-19)
(0.642844 -0.0657827 -7.05371e-19)
(0.782194 -0.0533102 -4.55429e-20)
(0.906316 -0.0383226 1.50877e-19)
(1.01094 -0.0233775 1.882e-19)
(1.09853 -0.00900322 -4.88914e-19)
(1.15726 4.46049e-05 9.27677e-20)
(0.0579528 -0.0283652 -6.31069e-19)
(0.203452 -0.0660411 -5.58337e-19)
(0.36793 -0.071577 -2.53091e-19)
(0.530427 -0.0698141 -1.06603e-18)
(0.686515 -0.0571531 4.35532e-20)
(0.827584 -0.0418098 -8.64384e-20)
(0.950567 -0.0248067 -1.85101e-19)
(1.05164 -0.00927723 -4.23967e-19)
(1.1337 0.00548645 8.07808e-19)
(1.1872 0.0100305 1.90358e-19)
(0.0669466 -0.0304361 6.30176e-19)
(0.225529 -0.0670609 -1.49487e-19)
(0.40015 -0.0689179 -2.28611e-20)
(0.569727 -0.0632608 1.88017e-19)
(0.729698 -0.0469327 -2.92598e-19)
(0.871471 -0.0288757 6.43954e-19)
(0.992249 -0.0101985 -4.77229e-20)
(1.08888 0.00557595 -1.48569e-19)
(1.16456 0.0200715 -2.73455e-19)
(1.21249 0.0215522 -3.48464e-19)
(0.0765871 -0.0321275 4.30686e-19)
(0.248574 -0.0670822 2.08039e-20)
(0.433088 -0.0648542 3.8443e-19)
(0.609121 -0.0550962 1.18905e-19)
(0.772067 -0.0351342 1.00546e-18)
(0.91352 -0.0145937 -6.69435e-19)
(1.0311 0.00536038 1.69245e-19)
(1.12252 0.021014 1.18083e-19)
(1.19129 0.0346407 -4.96088e-19)
(1.23348 0.0338819 4.25737e-19)
(0.0868423 -0.0333671 -5.75421e-19)
(0.272475 -0.0659903 -1.67218e-19)
(0.466544 -0.0592933 4.35688e-19)
(0.648333 -0.0452834 -1.04027e-19)
(0.813307 -0.0217956 -7.39458e-19)
(0.95343 0.00092813 7.16893e-19)
(1.0669 0.0217168 2.14503e-19)
(1.15248 0.0368611 2.7023e-19)
(1.21408 0.0490925 3.16773e-19)
(1.25045 0.0465231 -4.13333e-19)
(0.0976703 -0.0340847 -4.77057e-19)
(0.297102 -0.0636801 1.06769e-19)
(0.500302 -0.0521604 -5.84345e-19)
(0.687078 -0.0338095 1.4301e-19)
(0.85311 -0.00698021 -6.10771e-19)
(0.990933 0.0175623 -7.90296e-19)
(1.09949 0.0387106 -5.85338e-19)
(1.17875 0.052944 -7.97829e-20)
(1.23312 0.0633308 -3.53049e-19)
(1.26373 0.0591214 2.56314e-19)
(0.10902 -0.0342132 1.58217e-18)
(0.322305 -0.0600584 5.37968e-19)
(0.534131 -0.0434009 3.17086e-19)
(0.725073 -0.0206868 -6.71547e-19)
(0.89119 0.00922535 5.33674e-19)
(1.0258 0.0351658 3.48894e-19)
(1.12879 0.0561792 1.95604e-19)
(1.20138 0.0690999 -2.99792e-19)
(1.24863 0.0772677 -6.6134e-20)
(1.27369 0.0714347 -2.63586e-19)
(0.120829 -0.0336901 -9.90948e-19)
(0.347923 -0.0550456 -9.19028e-19)
(0.567789 -0.0329819 -4.80988e-19)
(0.762031 -0.00595305 3.06135e-19)
(0.927279 0.0267128 2.81297e-20)
(1.05786 0.0535845 -6.08195e-19)
(1.15472 0.0739615 2.29772e-20)
(1.22048 0.0851803 6.2561e-19)
(1.26085 0.0908264 4.59439e-19)
(1.28066 0.0833087 3.57684e-19)
(0.133028 -0.0324582 -2.22505e-19)
(0.373777 -0.0485786 3.97334e-20)
(0.601026 -0.020894 9.74072e-19)
(0.797678 0.0103293 -1.3623e-20)
(0.961139 0.045355 1.12015e-19)
(1.08695 0.0726566 6.74857e-19)
(1.1773 0.0919019 -4.87812e-20)
(1.23618 0.101054 -2.87816e-19)
(1.27003 0.103943 -3.79458e-19)
(1.28499 0.0946526 -1.95138e-20)
(0.145537 -0.0304671 3.14824e-19)
(0.399678 -0.0406116 5.22651e-19)
(0.633588 -0.00715169 -9.13207e-19)
(0.83175 0.0280739 4.69573e-19)
(0.992559 0.0650089 -4.69864e-20)
(1.11298 0.0922172 -1.37979e-19)
(1.19656 0.109853 4.00579e-19)
(1.24866 0.116609 -2.62996e-19)
(1.27641 0.116567 1.18868e-19)
(1.28698 0.10542 1.83208e-19)
(0.158268 -0.0276739 2.48067e-19)
(0.425427 -0.031118 1.03727e-19)
(0.665223 0.00820622 3.38177e-19)
(0.863996 0.0471726 -4.37163e-19)
(1.02136 0.0855189 -1.85905e-19)
(1.1359 0.112101 -1.93449e-19)
(1.21258 0.127677 -2.29334e-19)
(1.2581 0.131749 5.03806e-19)
(1.28026 0.128659 -9.2154e-20)
(1.28691 0.115594 -2.12813e-19)
(0.171125 -0.0240447 -3.08234e-19)
(0.450818 -0.0200914 1.68352e-20)
(0.695682 0.0251169 -1.41804e-19)
(0.89419 0.0674969 1.11732e-19)
(1.04741 0.10672 5.28869e-19)
(1.15567 0.132147 3.10881e-19)
(1.22546 0.145249 -1.29005e-19)
(1.2647 0.146396 -1.14041e-19)
(1.2818 0.140192 2.3259e-19)
(1.28506 0.125177 4.44553e-20)
(0.184008 -0.0195551 -2.55851e-19)
(0.475643 -0.00754657 2.09259e-19)
(0.724722 0.0434941 -2.28807e-19)
(0.922125 0.0889011 7.01644e-20)
(1.07058 0.128442 -1.65426e-19)
(1.17232 0.152198 -2.20859e-20)
(1.23533 0.162456 1.12145e-19)
(1.26868 0.160485 -1.18819e-19)
(1.28127 0.151147 -2.84706e-21)
(1.28164 0.134181 3.00846e-20)
(0.196808 -0.0141913 3.97125e-19)
(0.499688 0.00648044 -3.2544e-19)
(0.752114 0.0632296 6.73488e-20)
(0.947622 0.111225 1.55091e-20)
(1.09081 0.150511 -3.75725e-20)
(1.18589 0.172106 2.09284e-20)
(1.24233 0.179197 -9.34378e-22)
(1.27024 0.173966 4.98778e-20)
(1.27889 0.161512 -4.72823e-20)
(1.27685 0.142625 -1.81938e-20)
(0.209414 -0.0079506 1.47387e-19)
(0.522745 0.0219319 1.30421e-19)
(0.777643 0.0841945 1.47335e-19)
(0.970527 0.134295 -2.19955e-19)
(1.10804 0.172751 -1.9765e-19)
(1.19644 0.191729 2.12925e-20)
(1.24662 0.195382 -1.27597e-19)
(1.26958 0.186797 -5.87547e-20)
(1.27485 0.171279 1.25701e-20)
(1.27087 0.150526 -1.35078e-21)
(0.221713 -0.000842663 -1.35597e-19)
(0.544609 0.0387287 8.09308e-20)
(0.801111 0.106241 7.40881e-20)
(0.990716 0.157931 1.74135e-19)
(1.12227 0.194992 5.77041e-20)
(1.20408 0.210937 -1.03742e-19)
(1.24838 0.210933 -7.42645e-21)
(1.26691 0.198946 -8.74796e-22)
(1.26935 0.180447 -3.00321e-20)
(1.26385 0.157904 3.37019e-22)
(0.233591 0.00711069 8.16755e-21)
(0.565086 0.0567712 -1.39333e-19)
(0.822342 0.129205 -1.09531e-19)
(1.00809 0.181944 -4.97892e-20)
(1.1335 0.217065 -2.24852e-20)
(1.2089 0.229609 9.02958e-21)
(1.24776 0.225782 1.49537e-20)
(1.2624 0.210387 2.67566e-20)
(1.26253 0.189013 5.32177e-21)
(1.25592 0.164772 1.63842e-21)
(0.244926 0.0158758 6.54462e-21)
(0.583984 0.0759409 -1.11114e-20)
(0.841177 0.15291 4.93328e-20)
(1.02259 0.206141 3.55319e-20)
(1.14178 0.238806 1.42328e-20)
(1.21104 0.247633 -6.63421e-21)
(1.24495 0.23987 -1.61271e-20)
(1.25624 0.2211 3.5676e-22)
(1.25455 0.196977 6.08196e-21)
(1.24718 0.171142 -3.92984e-21)
(0.255554 0.0254045 7.60707e-21)
(0.601101 0.0960984 -8.7996e-21)
(0.857472 0.177163 4.31733e-20)
(1.03415 0.23033 3.48091e-20)
(1.14717 0.260059 7.86889e-21)
(1.21062 0.264907 -5.07653e-21)
(1.2401 0.253145 -1.49707e-20)
(1.24858 0.231067 3.55009e-21)
(1.24555 0.204338 3.14189e-21)
(1.23775 0.17702 -2.05375e-21)
(0.26536 0.0356305 1.16218e-20)
(0.616273 0.117077 -1.27436e-19)
(0.871114 0.201757 -8.26773e-20)
(1.04278 0.254311 -5.07952e-20)
(1.14973 0.280674 -2.75067e-20)
(1.2078 0.281337 9.40259e-21)
(1.23338 0.265562 1.35598e-20)
(1.23958 0.240274 1.48473e-20)
(1.23565 0.211094 -4.48908e-22)
(1.2277 0.182409 3.39335e-21)
(0.274286 0.046481 -9.97631e-20)
(0.629393 0.138706 7.9716e-20)
(0.882044 0.226486 5.35859e-20)
(1.04848 0.277895 1.33285e-19)
(1.14959 0.300511 3.63737e-20)
(1.20272 0.296842 -6.62974e-20)
(1.22495 0.277083 -5.05875e-21)
(1.22938 0.248709 -6.44912e-21)
(1.22494 0.217242 -1.10458e-20)
(1.2171 0.187308 1.11699e-22)
(0.282243 0.057874 9.56509e-20)
(0.640345 0.160806 1.16016e-19)
(0.890211 0.251143 1.06425e-19)
(1.05129 0.300898 -1.59104e-19)
(1.14684 0.31944 -9.69206e-20)
(1.19554 0.311345 -6.56397e-21)
(1.21497 0.287673 -4.26551e-20)
(1.2181 0.256359 -2.58083e-20)
(1.21353 0.222779 5.98428e-21)
(1.20604 0.191711 1.50806e-21)
(0.289136 0.069716 2.75274e-19)
(0.649028 0.183184 -2.70042e-19)
(0.895586 0.275518 5.85799e-20)
(1.05129 0.323143 1.39142e-20)
(1.14162 0.33734 3.68105e-21)
(1.1864 0.32478 6.75021e-21)
(1.20358 0.297303 1.11261e-20)
(1.20587 0.263215 1.45634e-20)
(1.20151 0.2277 -1.84596e-21)
(1.19456 0.195613 1.39952e-21)
(0.294883 0.0819042 -2.06204e-19)
(0.655364 0.205641 1.53057e-19)
(0.898166 0.299399 -1.6444e-19)
(1.04853 0.344456 6.78678e-20)
(1.13406 0.354099 -6.36299e-20)
(1.17546 0.337086 1.22437e-21)
(1.19091 0.305947 2.74011e-20)
(1.1928 0.269264 -6.02266e-21)
(1.18894 0.231999 5.63441e-21)
(1.18272 0.199003 -3.90233e-21)
(0.299414 0.0943273 -1.4517e-19)
(0.6593 0.227969 -2.208e-20)
(0.897973 0.322578 -6.03192e-20)
(1.04313 0.364675 3.81095e-20)
(1.1243 0.369614 2.10156e-19)
(1.16287 0.348211 7.18805e-20)
(1.1771 0.313581 -6.14639e-21)
(1.17897 0.274496 7.27376e-21)
(1.1759 0.235664 -2.21074e-20)
(1.17059 0.201873 -5.17715e-21)
(0.30267 0.106867 1.68547e-19)
(0.660805 0.249959 2.61935e-20)
(0.895054 0.344852 1.99368e-19)
(1.0352 0.383645 -1.9702e-19)
(1.1125 0.383792 -4.96424e-20)
(1.14879 0.358106 -4.83307e-20)
(1.16229 0.320186 1.65325e-21)
(1.1645 0.278903 -2.2844e-20)
(1.16245 0.238689 1.01583e-20)
(1.1582 0.204206 7.07893e-20)
(0.304609 0.119398 1.22436e-19)
(0.659872 0.271398 2.21364e-19)
(0.889478 0.366025 -3.36718e-19)
(1.02486 0.401222 1.60835e-19)
(1.09881 0.396547 -2.55436e-20)
(1.13335 0.366731 -3.12073e-21)
(1.14658 0.325742 1.42648e-20)
(1.14947 0.282476 1.35476e-20)
(1.14865 0.241064 -2.52719e-20)
(1.14559 0.205989 -6.85304e-20)
(0.305198 0.131793 -1.0566e-19)
(0.65652 0.292077 -2.44196e-20)
(0.881335 0.385906 3.42574e-19)
(1.01226 0.417273 -3.95515e-21)
(1.08338 0.407805 9.94433e-21)
(1.11671 0.37405 7.86457e-21)
(1.13009 0.330235 -5.59548e-22)
(1.13395 0.285205 8.13974e-20)
(1.13456 0.242779 1.1308e-19)
(1.13282 0.207205 6.46712e-22)
(0.304422 0.143919 -3.2212e-19)
(0.650788 0.311789 -3.33155e-19)
(0.870736 0.404317 -1.3142e-19)
(0.997548 0.431674 3.06297e-20)
(1.06639 0.417498 -2.23976e-21)
(1.09901 0.380031 4.61968e-21)
(1.11294 0.333651 3.64484e-21)
(1.11804 0.287082 -1.57199e-19)
(1.12021 0.243825 -1.82251e-20)
(1.11992 0.207839 -2.00534e-19)
(0.302279 0.155643 4.42026e-19)
(0.642741 0.330332 1.67295e-19)
(0.857808 0.42109 6.07619e-20)
(0.980895 0.444315 -8.3725e-20)
(1.04799 0.425569 -3.03696e-20)
(1.08039 0.38465 -4.13565e-20)
(1.09523 0.335979 -4.70505e-20)
(1.10179 0.2881 -1.03354e-19)
(1.10567 0.244195 3.52595e-20)
(1.10693 0.207874 1.20153e-19)
(0.298783 0.166833 -1.57181e-19)
(0.632465 0.347513 2.08505e-20)
(0.842696 0.436066 -7.52411e-20)
(0.962468 0.455097 1.5071e-20)
(1.02835 0.431969 1.47252e-20)
(1.06098 0.387886 1.69542e-19)
(1.07705 0.337212 1.16131e-19)
(1.08529 0.288256 1.37583e-20)
(1.09097 0.243882 1.29047e-19)
(1.09389 0.207294 -1.50367e-19)
(0.293963 0.177359 -9.21604e-20)
(0.620066 0.363149 -2.09831e-20)
(0.825561 0.449105 3.28146e-20)
(0.942448 0.463933 1.74503e-20)
(1.00763 0.436657 1.42186e-19)
(1.04092 0.389723 -1.82351e-19)
(1.05853 0.337344 -8.81548e-20)
(1.0686 0.287545 -9.91254e-20)
(1.07615 0.24288 -1.61282e-19)
(1.08082 0.206083 2.26422e-19)
(0.287862 0.187092 2.94797e-20)
(0.60567 0.377066 -1.56101e-20)
(0.80658 0.460079 -2.80584e-20)
(0.921019 0.470748 -1.61199e-20)
(0.986004 0.439602 -1.86998e-19)
(1.02034 0.390152 1.36108e-19)
(1.03974 0.336373 -5.70444e-20)
(1.05179 0.285967 -6.84132e-20)
(1.06126 0.241189 2.3398e-19)
(1.06775 0.204224 -2.41007e-19)
(0.280539 0.195911 -6.58125e-20)
(0.589421 0.389105 -1.31348e-20)
(0.785936 0.468873 -1.2463e-20)
(0.89837 0.475482 -7.12583e-20)
(0.963625 0.440779 1.04807e-19)
(0.999365 0.389166 -1.96421e-19)
(1.02079 0.334297 -7.10385e-20)
(1.03492 0.283526 1.36515e-19)
(1.04631 0.238808 1.76514e-19)
(1.0547 0.201701 2.81789e-19)
(0.272066 0.203702 2.93609e-20)
(0.57148 0.399122 6.87198e-20)
(0.763826 0.475389 4.74658e-20)
(0.874691 0.478084 3.52258e-19)
(0.94066 0.440173 6.53827e-20)
(0.978127 0.386765 3.10326e-20)
(1.00177 0.331122 1.71785e-19)
(1.01808 0.280226 2.47585e-19)
(1.03136 0.235742 -6.48755e-19)
(1.0417 0.198498 -1.07174e-19)
(0.262532 0.21036 1.86491e-19)
(0.552024 0.406988 -1.45703e-19)
(0.740455 0.479547 8.26193e-20)
(0.850177 0.478518 -1.46436e-19)
(0.917267 0.437777 3.67514e-19)
(0.956746 0.382952 -2.45717e-20)
(0.982777 0.326852 -3.30238e-20)
(1.00133 0.276076 -1.38826e-19)
(1.01643 0.231992 4.31915e-19)
(1.02873 0.194597 -2.05227e-19)
(0.252036 0.215789 -2.911e-19)
(0.531245 0.412596 9.96149e-20)
(0.716033 0.481281 -1.61766e-19)
(0.825021 0.476762 -2.50839e-20)
(0.893605 0.433592 -5.17566e-19)
(0.935343 0.377736 -5.64679e-20)
(0.963899 0.321499 -4.58967e-19)
(0.984732 0.271089 6.05692e-20)
(1.00157 0.227566 2.88286e-19)
(1.01582 0.189965 2.34219e-19)
(0.240678 0.219895 5.19449e-20)
(0.509337 0.415847 7.89246e-20)
(0.690773 0.480542 3e-19)
(0.799418 0.472802 3.21018e-20)
(0.869826 0.427626 1.73532e-19)
(0.914036 0.37113 3.16347e-19)
(0.945229 0.315073 5.32134e-19)
(0.968371 0.265285 1.91258e-19)
(0.986873 0.222517 -6.41445e-19)
(1.00305 0.184688 1.39602e-19)
(0.228519 0.222544 -1.43589e-19)
(0.486488 0.416643 -2.51888e-20)
(0.664888 0.47729 1.56891e-22)
(0.773558 0.466638 1.85481e-19)
(0.846084 0.419897 -2.06902e-19)
(0.892937 0.363153 2.14998e-19)
(0.926854 0.30759 -1.81291e-19)
(0.952335 0.258672 -1.98436e-19)
(0.972577 0.21694 8.67205e-19)
(0.990324 0.179466 3.77638e-19)
(0.215699 0.223667 1.87293e-20)
(0.462926 0.414917 1.91375e-19)
(0.6386 0.471507 -4.87503e-19)
(0.747632 0.458284 -6.4203e-19)
(0.822523 0.41043 8.62613e-20)
(0.872157 0.353829 -4.54065e-19)
(0.908857 0.299063 1.63126e-19)
(0.936716 0.251228 -1.11618e-19)
(0.958904 0.210699 -2.89467e-19)
(0.978708 0.174514 -8.47584e-19)
(0.202411 0.223273 6.3354e-19)
(0.438905 0.410667 -4.331e-19)
(0.612144 0.463211 2.81088e-19)
(0.72183 0.44777 3.62428e-19)
(0.799289 0.399258 1.54679e-19)
(0.851801 0.343185 5.85748e-19)
(0.891313 0.289513 1.62427e-19)
(0.921554 0.242964 2.13992e-19)
(0.94571 0.203721 -5.79253e-19)
(0.967212 0.169102 9.01888e-20)
(0.188803 0.221341 -4.35925e-19)
(0.414652 0.403887 1.24836e-19)
(0.585739 0.452426 -3.02977e-19)
(0.696336 0.435136 -7.60242e-20)
(0.776518 0.386423 -1.27748e-21)
(0.83197 0.331255 7.4389e-20)
(0.874294 0.278964 -3.25206e-19)
(0.906893 0.233902 -4.72223e-19)
(0.932995 0.196057 2.98492e-19)
(0.956008 0.163048 2.43516e-19)
(0.175014 0.217847 -2.15162e-19)
(0.390392 0.394587 -1.31314e-19)
(0.5596 0.439192 -5.50807e-19)
(0.671328 0.420433 1.68168e-19)
(0.754345 0.371971 5.13966e-19)
(0.812763 0.318078 -6.60884e-19)
(0.857873 0.267446 -5.7942e-19)
(0.892785 0.224069 2.33215e-19)
(0.920795 0.187757 5.31146e-19)
(0.945213 0.156398 7.8416e-20)
(0.161188 0.212786 -4.53831e-19)
(0.366348 0.382797 1.45307e-21)
(0.533938 0.423563 2.85108e-19)
(0.646975 0.403722 -3.40701e-19)
(0.732896 0.35596 -8.1004e-19)
(0.794272 0.3037 -6.14873e-20)
(0.842118 0.254993 8.90882e-19)
(0.879282 0.213488 -4.1669e-19)
(0.909149 0.178847 -5.43584e-19)
(0.934888 0.149201 -1.30422e-19)
(0.14747 0.206171 2.85583e-19)
(0.342742 0.368567 5.7308e-19)
(0.508957 0.405612 4.14628e-19)
(0.623444 0.385076 3.60236e-19)
(0.712293 0.338452 1.65722e-19)
(0.776587 0.288168 8.64285e-19)
(0.827095 0.241642 -3.61811e-19)
(0.866436 0.202188 2.95399e-19)
(0.898094 0.169349 5.28589e-19)
(0.925084 0.141474 1.26893e-19)
(0.134006 0.198029 -5.26809e-19)
(0.319791 0.351968 1.88201e-19)
(0.484856 0.385425 -6.22334e-19)
(0.600891 0.36458 1.69725e-19)
(0.692653 0.319516 -7.46832e-19)
(0.759792 0.271539 -9.85062e-19)
(0.812868 0.227435 4.82453e-19)
(0.854295 0.1902 -4.25854e-20)
(0.887667 0.159285 -4.57723e-19)
(0.915844 0.133234 -3.07961e-19)
(0.120938 0.188403 7.08725e-19)
(0.297703 0.333091 -9.81707e-19)
(0.461822 0.363104 3.43928e-19)
(0.579465 0.342327 -7.28394e-19)
(0.674083 0.29923 5.79048e-19)
(0.743968 0.253871 4.52905e-19)
(0.799496 0.212418 -4.09492e-19)
(0.842905 0.177559 -4.70392e-19)
(0.877903 0.148682 3.25991e-19)
(0.907201 0.124505 2.44324e-19)
(0.108405 0.17735 -8.38755e-20)
(0.27668 0.312044 5.67401e-19)
(0.440034 0.338764 -6.17674e-19)
(0.559307 0.318419 4.37737e-19)
(0.656688 0.277675 -3.56316e-20)
(0.72919 0.235227 3.03234e-20)
(0.787035 0.196638 3.59629e-20)
(0.83231 0.164302 1.01073e-18)
(0.868836 0.137571 -1.61369e-19)
(0.899188 0.115313 -3.64276e-20)
(0.0965387 0.16494 2.86995e-19)
(0.256912 0.288951 5.70417e-21)
(0.419661 0.312535 3.19273e-19)
(0.540548 0.29297 1.68154e-20)
(0.640561 0.254941 1.57028e-19)
(0.715526 0.215677 -3.30719e-19)
(0.775537 0.180149 -3.84976e-20)
(0.822549 0.150472 -5.58266e-19)
(0.860496 0.125984 -2.49656e-19)
(0.89183 0.105691 2.52811e-19)
(0.0854662 0.151258 -1.95107e-19)
(0.238577 0.263954 -7.21473e-19)
(0.400859 0.284557 5.49853e-19)
(0.523307 0.266099 6.44274e-19)
(0.62579 0.231122 -6.76548e-20)
(0.703041 0.195293 -2.17341e-19)
(0.765049 0.163006 6.85525e-19)
(0.813659 0.136112 -4.99211e-19)
(0.852909 0.113956 2.25333e-19)
(0.885148 0.0956708 -3.61842e-19)
(0.0753048 0.136402 3.77003e-19)
(0.221841 0.237212 -3.54371e-19)
(0.383771 0.254983 -7.60196e-19)
(0.507697 0.237935 5.53674e-20)
(0.612454 0.206318 3.84515e-19)
(0.691793 0.174152 5.7771e-19)
(0.755615 0.14527 -7.24878e-19)
(0.805672 0.121271 3.77521e-19)
(0.846102 0.101528 -2.84879e-19)
(0.879163 0.0852897 -1.43998e-19)
(0.0661625 0.120479 2.19826e-19)
(0.206853 0.208893 -3.86167e-20)
(0.368526 0.223974 7.50151e-19)
(0.493815 0.208613 -2.41352e-19)
(0.600626 0.180632 2.39673e-19)
(0.681835 0.152333 4.27232e-20)
(0.747273 0.127002 -2.83716e-19)
(0.798618 0.105997 1.3668e-19)
(0.840096 0.0887391 5.3977e-19)
(0.873891 0.0745854 5.13902e-19)
(0.0581368 0.103609 -1.05197e-18)
(0.193748 0.179183 -2.15742e-19)
(0.355241 0.191703 -8.24861e-19)
(0.48175 0.178273 -2.37043e-19)
(0.590369 0.154173 -2.56172e-19)
(0.673213 0.129921 -5.35472e-19)
(0.740059 0.108268 1.8057e-19)
(0.792523 0.0903449 4.27458e-19)
(0.834911 0.075634 4.68299e-21)
(0.869345 0.063598 -3.6623e-19)
(0.051313 0.0859209 5.47193e-19)
(0.182644 0.148274 -1.06729e-20)
(0.344013 0.15835 1.221e-19)
(0.471579 0.147064 2.85114e-20)
(0.581737 0.127054 -3.35187e-19)
(0.665965 0.107 4.91764e-19)
(0.734001 0.0891344 4.5047e-19)
(0.787409 0.0743678 -2.37973e-19)
(0.830565 0.0622578 -1.17857e-19)
(0.865539 0.0523686 1.79366e-19)
(0.0457642 0.0675509 -1.34717e-19)
(0.173638 0.116372 2.13235e-19)
(0.334929 0.124102 2.28676e-19)
(0.463364 0.115136 -3.96309e-19)
(0.574776 0.0993907 2.15238e-20)
(0.660127 0.0836612 -1.00176e-20)
(0.729125 0.0696718 -2.49804e-19)
(0.783295 0.0581226 1.5264e-20)
(0.82707 0.0486576 4.54322e-20)
(0.862482 0.0409397 -1.85041e-19)
(0.0415494 0.0486425 1.40782e-19)
(0.166813 0.0836885 -1.41362e-19)
(0.328056 0.0891508 -1.20164e-19)
(0.457157 0.0826457 3.23218e-19)
(0.569523 0.0713003 8.80956e-20)
(0.655725 0.059994 -2.15648e-19)
(0.72545 0.0499512 -1.64368e-20)
(0.780197 0.0416673 -1.73137e-19)
(0.824439 0.0348818 -1.12917e-19)
(0.860182 0.0293547 1.78458e-20)
(0.0387141 0.0293444 1.24739e-20)
(0.162228 0.0504413 3.80014e-20)
(0.323445 0.0536943 6.99787e-20)
(0.452998 0.0497505 -1.06115e-19)
(0.566005 0.0429036 -5.51801e-20)
(0.652779 0.0360912 3.00016e-20)
(0.722991 0.0300453 -6.30527e-20)
(0.778124 0.025061 6.8911e-20)
(0.82268 0.0209797 2.65421e-20)
(0.858645 0.0176577 1.0216e-20)
(0.0372886 0.00980869 1.06745e-20)
(0.159925 0.0168527 1.47627e-20)
(0.321131 0.0179325 -8.48755e-20)
(0.450912 0.0166111 6.42177e-20)
(0.564242 0.014322 2.99006e-20)
(0.651303 0.0120464 -1.92254e-20)
(0.72176 0.0100276 5.8441e-20)
(0.777087 0.00836381 6.83541e-21)
(0.821799 0.00700163 2.49608e-20)
(0.857876 0.00589324 -2.24374e-20)
(0.0372886 -0.00980869 1.3286e-20)
(0.159925 -0.0168527 -1.47627e-20)
(0.321131 -0.0179325 8.48755e-20)
(0.450912 -0.0166111 6.86505e-20)
(0.564242 -0.014322 1.87172e-20)
(0.651303 -0.0120464 -1.07175e-20)
(0.72176 -0.0100276 5.66151e-20)
(0.777087 -0.0083638 8.42575e-21)
(0.821799 -0.00700163 1.75708e-20)
(0.857876 -0.00589324 -1.3893e-20)
(0.0387141 -0.0293444 2.14261e-20)
(0.162228 -0.0504413 4.78686e-20)
(0.323445 -0.0536943 6.98483e-20)
(0.452998 -0.0497505 -1.04305e-19)
(0.566005 -0.0429036 -4.70854e-20)
(0.652779 -0.0360912 1.77329e-20)
(0.722991 -0.0300453 -5.98002e-20)
(0.778124 -0.025061 7.53283e-20)
(0.82268 -0.0209797 1.10441e-21)
(0.858645 -0.0176576 2.54285e-20)
(0.0415494 -0.0486425 1.43035e-19)
(0.166813 -0.0836885 -1.22543e-19)
(0.328056 -0.0891508 -1.35666e-19)
(0.457157 -0.0826457 3.08451e-19)
(0.569523 -0.0713003 9.8687e-20)
(0.655725 -0.059994 -2.24629e-19)
(0.72545 -0.0499512 -2.38962e-20)
(0.780197 -0.0416673 -1.87826e-19)
(0.824439 -0.0348818 -8.18531e-20)
(0.860182 -0.0293547 -2.08147e-20)
(0.0457642 -0.0675509 -1.39463e-19)
(0.173638 -0.116372 2.03878e-19)
(0.334929 -0.124102 2.31896e-19)
(0.463364 -0.115136 -3.53926e-19)
(0.574776 -0.0993907 -2.61045e-20)
(0.660127 -0.0836612 1.56241e-20)
(0.729125 -0.0696718 -2.63187e-19)
(0.783295 -0.0581226 -2.02812e-20)
(0.82707 -0.0486576 3.59849e-20)
(0.862482 -0.0409397 -1.92998e-19)
(0.051313 -0.0859209 5.89677e-19)
(0.182644 -0.148274 1.82946e-20)
(0.344013 -0.15835 1.181e-19)
(0.471579 -0.147064 2.92867e-20)
(0.581737 -0.127054 -3.73078e-19)
(0.665965 -0.107 5.69863e-19)
(0.734001 -0.0891344 3.77738e-19)
(0.787409 -0.0743678 -1.71041e-19)
(0.830565 -0.0622578 -1.25221e-19)
(0.865539 -0.0523686 1.31255e-19)
(0.0581368 -0.103609 -1.01524e-18)
(0.193748 -0.179183 -1.95151e-19)
(0.355241 -0.191703 -8.33921e-19)
(0.48175 -0.178273 -1.78311e-19)
(0.590369 -0.154173 -2.81287e-19)
(0.673213 -0.129921 -5.35551e-19)
(0.740059 -0.108268 1.90618e-19)
(0.792523 -0.0903449 4.48838e-19)
(0.834911 -0.075634 -4.99614e-20)
(0.869345 -0.063598 -2.69281e-19)
(0.0661625 -0.120479 3.14799e-19)
(0.206853 -0.208893 9.92986e-21)
(0.368526 -0.223974 7.34373e-19)
(0.493815 -0.208613 -2.14862e-19)
(0.600626 -0.180632 2.55903e-19)
(0.681835 -0.152333 -3.85887e-20)
(0.747273 -0.127002 -1.28655e-19)
(0.798618 -0.105997 -1.80964e-20)
(0.840096 -0.0887391 5.93382e-19)
(0.873891 -0.0745854 4.26605e-19)
(0.0753048 -0.136402 3.51599e-19)
(0.221841 -0.237212 5.807e-19)
(0.383771 -0.254983 -7.51701e-19)
(0.507697 -0.237935 1.81154e-20)
(0.612454 -0.206318 3.28176e-19)
(0.691793 -0.174152 6.82748e-19)
(0.755615 -0.14527 -8.50211e-19)
(0.805672 -0.121271 3.9386e-19)
(0.846102 -0.101528 -2.93115e-19)
(0.879163 -0.0852897 -3.97865e-20)
(0.0854662 -0.151258 -2.21535e-19)
(0.238577 -0.263954 1.26674e-19)
(0.400859 -0.284557 5.41381e-19)
(0.523307 -0.266099 6.5392e-19)
(0.62579 -0.231122 -1.66776e-19)
(0.703041 -0.195293 -1.65817e-19)