/*--------------------------------*- C++ -*----------------------------------*\
  =========                 |
  \\      /  F ield         | OpenFOAM: The Open Source CFD Toolbox
   \\    /   O peration     | Website:  https://openfoam.org
    \\  /    A nd           | Version:  7
     \\/     M anipulation  |
\*---------------------------------------------------------------------------*/
FoamFile
{
    version     2.0;
    format      ascii;
    class       surfaceScalarField;
    location    "15";
    object      phi;
}
// * * * * * * * * * * * * * * * * * * * * * * * * * * * * * * * * * * * * * //

dimensions      [0 3 -1 0 0 0 0];

internalField   nonuniform List<scalar> 
5125
(
-0.00826857
-0.000375216
-0.00794723
-0.00820168
-0.000361614
-0.00762937
-0.000428752
-0.00788009
-0.00813139
-0.000344377
-0.00731476
-0.000411338
-0.0075624
-0.00048188
-0.00780955
-0.00805774
-0.000555532
-0.00032409
-0.00700256
-0.000390308
-0.00724854
-0.000460662
-0.00749205
-0.000534569
-0.00773565
-0.00798076
-0.000611546
-0.000301397
-0.00669109
-0.000366274
-0.00693768
-0.000435849
-0.00717896
-0.000509552
-0.00741835
-0.000586788
-0.00765841
-0.00790049
-0.000667059
-0.000276939
-0.00637786
-0.000339904
-0.00662813
-0.000408087
-0.0068695
-0.000480966
-0.00710609
-0.000557974
-0.00734134
-0.000638506
-0.00757788
-0.00781695
-0.000722042
-0.000311852
-0.00631731
-0.00037807
-0.00656191
-0.000449496
-0.00679807
-0.000525624
-0.00702996
-0.000605895
-0.00726107
-0.000689694
-0.00749408
-0.00773018
-0.000776472
-0.000282705
-0.00600203
-0.00034646
-0.00625356
-0.000415863
-0.00649251
-0.000490468
-0.00672347
-0.000569789
-0.00695064
-0.000653282
-0.00717758
-0.00074032
-0.00740704
-0.00764017
-0.000830322
-0.000252981
-0.00567861
-0.000313844
-0.00594117
-0.000380736
-0.00618667
-0.000453254
-0.00641999
-0.000530971
-0.00664575
-0.000613428
-0.00686818
-0.0007001
-0.0070909
-0.000790352
-0.00731679
-0.00754696
-0.000883567
-0.000280732
-0.00562101
-0.000344695
-0.0058772
-0.000414653
-0.00611671
-0.000490214
-0.00634443
-0.000570974
-0.00656499
-0.000656505
-0.00678265
-0.000746312
-0.0070011
-0.000839758
-0.00722334
-0.00745054
-0.000936182
-0.000247573
-0.00528913
-0.000308237
-0.00556035
-0.000375233
-0.00581021
-0.000448185
-0.00604376
-0.000526715
-0.0062659
-0.000610445
-0.00648126
-0.000698986
-0.00669411
-0.000791882
-0.0069082
-0.000888501
-0.00712672
-0.0073509
-0.000988141
-0.000271809
-0.00523211
-0.000335476
-0.00549668
-0.000405434
-0.00574025
-0.000481309
-0.00596788
-0.000562731
-0.00618448
-0.000649355
-0.00639464
-0.000740837
-0.00660262
-0.000836771
-0.00681227
-0.000936544
-0.00702695
-0.00724802
-0.00103942
-0.000235824
-0.00488832
-0.000295821
-0.00517211
-0.000362427
-0.00543008
-0.000435279
-0.0056674
-0.000514
-0.00588916
-0.000598238
-0.00610024
-0.000687677
-0.0063052
-0.000782024
-0.00650828
-0.000880936
-0.00671336
-0.000983847
-0.00692404
-0.00714188
-0.00108999
-0.000256683
-0.00483232
-0.000319591
-0.0051092
-0.000389071
-0.0053606
-0.000464745
-0.00559172
-0.000546239
-0.00580767
-0.000633214
-0.00601326
-0.000725383
-0.00621303
-0.000822511
-0.00641115
-0.000924336
-0.00661153
-0.00103036
-0.00681801
-0.00703242
-0.00113982
-0.000218473
-0.00447308
-0.000277342
-0.00477345
-0.0003431
-0.00504344
-0.000415387
-0.00528831
-0.000493814
-0.0055133
-0.000578007
-0.00572347
-0.000667637
-0.00592363
-0.000762449
-0.00611822
-0.000862267
-0.00631133
-0.000966923
-0.00650687
-0.00107604
-0.0067089
-0.00691957
-0.00118889
-0.0002361
-0.00441859
-0.000297782
-0.00471177
-0.000366329
-0.00497489
-0.000441358
-0.00521328
-0.00052247
-0.00543218
-0.000609286
-0.00563666
-0.000701491
-0.00583143
-0.000798855
-0.00602085
-0.000901261
-0.00620893
-0.00100865
-0.00639949
-0.00112081
-0.00659674
-0.00680323
-0.00123716
-0.000196303
-0.00404038
-0.000253549
-0.00436135
-0.000317988
-0.00464733
-0.000389262
-0.00490362
-0.000466968
-0.00513558
-0.000550694
-0.00534846
-0.000640061
-0.00554729
-0.00073476
-0.00573673
-0.000834584
-0.00592103
-0.000939467
-0.00610404
-0.00104947
-0.00628949
-0.00116462
-0.00648158
-0.00668326
-0.00128458
-0.000210854
-0.00398794
-0.000270804
-0.0043014
-0.000337943
-0.00458019
-0.000411883
-0.00482968
-0.0004922
-0.00505526
-0.000578473
-0.00526219
-0.000670319
-0.00545544
-0.000767432
-0.00563962
-0.000869622
-0.00581884
-0.000976864
-0.0059968
-0.00108932
-0.00617703
-0.00120737
-0.00636354
-0.0065595
-0.00133113
-0.000170183
-0.00358736
-0.000225249
-0.00393287
-0.000287851
-0.00423879
-0.000357633
-0.00451041
-0.000434177
-0.00475314
-0.00051704
-0.0049724
-0.000605792
-0.00517343
-0.000700046
-0.00536119
-0.000799499
-0.00554016
-0.000903964
-0.00571437
-0.00101344
-0.00588733
-0.00112818
-0.00606228
-0.00124898
-0.00624274
-0.00643175
-0.00137673
-0.000181836
-0.00353759
-0.000239476
-0.00387523
-0.000304676
-0.00417359
-0.000377042
-0.00443804
-0.000456128
-0.00467405
-0.000541473
-0.00488705
-0.000632638
-0.00508227
-0.000729234
-0.00526459
-0.000830952
-0.00543845
-0.000937606
-0.00560772
-0.00104919
-0.00577574
-0.00116601
-0.00594546
-0.0012893
-0.00611945
-0.00629989
-0.00142116
-0.000193356
-0.00348537
-0.000253522
-0.00381507
-0.000321266
-0.00410585
-0.000396156
-0.00436315
-0.000477722
-0.00459248
-0.000565487
-0.00479928
-0.000659
-0.00498876
-0.000757871
-0.00516572
-0.000861788
-0.00533453
-0.000970554
-0.00549895
-0.00108413
-0.00566217
-0.00120278
-0.00582681
-0.00132792
-0.00599431
-0.00616305
-0.00146476
-0.000151526
-0.00306504
-0.000206241
-0.00343065
-0.000268926
-0.00375238
-0.000339181
-0.0040356
-0.00041654
-0.00428579
-0.000500512
-0.00450851
-0.000590609
-0.00470919
-0.000686378
-0.00489299
-0.000787424
-0.00506468
-0.000893435
-0.00522852
-0.00100421
-0.00538818
-0.00111966
-0.00554672
-0.00123991
-0.00570656
-0.00136504
-0.00586918
-0.00603302
-0.00149507
-0.000160358
-0.00301636
-0.000217439
-0.00337357
-0.000282547
-0.00368727
-0.000355231
-0.00396291
-0.000434995
-0.00420603
-0.000521322
-0.00442218
-0.000613712
-0.0046168
-0.000711704
-0.004795
-0.000814901
-0.00496148
-0.000922993
-0.00512043
-0.00103576
-0.00527541
-0.0011531
-0.00542938
-0.00127505
-0.00558461
-0.00140167
-0.00574256
-0.00590235
-0.00153234
-0.000169073
-0.00296546
-0.000228474
-0.00331417
-0.00029595
-0.0036198
-0.000371007
-0.00388785
-0.000453115
-0.00412392
-0.000541735
-0.00433356
-0.000636354
-0.00452218
-0.000736508
-0.00469484
-0.000841798
-0.00485619
-0.000951914
-0.00501031
-0.00106664
-0.00516069
-0.00118585
-0.00531017
-0.00130954
-0.00546091
-0.00143782
-0.00561428
-0.00577021
-0.00156996
-0.000124597
-0.00252428
-0.000177662
-0.0029124
-0.000239333
-0.0032525
-0.000309124
-0.00355001
-0.000386496
-0.00381048
-0.000470887
-0.00403953
-0.000561738
-0.00424271
-0.000658526
-0.00442539
-0.00076078
-0.00459259
-0.000868105
-0.00474886
-0.000980191
-0.00489822
-0.00109682
-0.00504406
-0.00121787
-0.00518912
-0.00134331
-0.00533547
-0.00147319
-0.00548441
-0.00563642
-0.00160698
-0.000130924
-0.00247827
-0.000186115
-0.00285721
-0.000250008
-0.00318861
-0.000322059
-0.00347796
-0.000401687
-0.00373085
-0.0004883
-0.00395292
-0.00058132
-0.00414969
-0.000680214
-0.0043265
-0.000784509
-0.00448829
-0.000893811
-0.00463956
-0.00100781
-0.00478422
-0.0011263
-0.00492557
-0.00124915
-0.00506627
-0.00137632
-0.0052083
-0.00150779
-0.00535293
-0.00550105
-0.00164317
-0.000137152
-0.00243034
-0.000194426
-0.00279993
-0.000260489
-0.00312254
-0.000334745
-0.0034037
-0.00041657
-0.00364903
-0.000505343
-0.00386414
-0.000600471
-0.00405456
-0.00070141
-0.00422556
-0.000807685
-0.00438202
-0.000918906
-0.00452834
-0.00103477
-0.00466836
-0.00115507
-0.00480527
-0.00127967
-0.00494167
-0.00140853
-0.00507945
-0.00154159
-0.00521986
-0.00536408
-0.00167856
-0.000143275
-0.00238051
-0.000202586
-0.00274062
-0.000270768
-0.00305436
-0.000347171
-0.0033273
-0.000431133
-0.00356507
-0.000522006
-0.00377327
-0.00061918
-0.00395739
-0.000722102
-0.00412264
-0.000830299
-0.00427382
-0.00094338
-0.00441526
-0.00106105
-0.00455069
-0.00118311
-0.00468322
-0.00130942
-0.00481535
-0.00143992
-0.00494895
-0.00157456
-0.00508522
-0.00522554
-0.0017131
-9.76167e-05
-0.00192699
-0.000149286
-0.00232884
-0.000210586
-0.00267932
-0.000280834
-0.00298411
-0.000359327
-0.00324881
-0.000445367
-0.00347903
-0.000538279
-0.00368036
-0.000637436
-0.00385823
-0.000742282
-0.00401779
-0.00085234
-0.00416376
-0.000967225
-0.00430037
-0.00108665
-0.00443126
-0.00121041
-0.00455946
-0.00133838
-0.00468738
-0.00147049
-0.00481683
-0.00160668
-0.00494903
-0.00508545
-0.00174677
-0.000101705
-0.00188401
-0.00015518
-0.00227537
-0.000218421
-0.00261608
-0.00029068
-0.00291185
-0.000371206
-0.00316828
-0.000459263
-0.00339097
-0.000554151
-0.00358547
-0.000655231
-0.00375715
-0.000761939
-0.00391108
-0.000873799
-0.0040519
-0.000990431
-0.00418374
-0.00111155
-0.00431015
-0.00123696
-0.00443405
-0.00136654
-0.0045578
-0.00150022
-0.00468316
-0.00163793
-0.00481132
-0.00494384
-0.00177955
-0.000105714
-0.00183948
-0.000160951
-0.00222013
-0.000226083
-0.00255095
-0.000300298
-0.00283764
-0.000382798
-0.00308578
-0.000472811
-0.00330096
-0.000569614
-0.00348867
-0.000672556
-0.00365421
-0.000781065
-0.00380257
-0.000894669
-0.0039383
-0.00101299
-0.00406542
-0.00113575
-0.00418738
-0.00126276
-0.00430704
-0.0013939
-0.00442666
-0.0015291
-0.00454795
-0.0016683
-0.00467212
-0.00480072
-0.00181142
-0.000109637
-0.00179343
-0.000166592
-0.00216318
-0.000233563
-0.00248398
-0.00030968
-0.00276152
-0.000394095
-0.00300136
-0.000486002
-0.00320905
-0.000584659
-0.00339001
-0.000689401
-0.00354947
-0.000799652
-0.00369232
-0.000914941
-0.00382301
-0.0010349
-0.00394547
-0.00115924
-0.00406304
-0.0012878
-0.00417849
-0.00142045
-0.00429401
-0.00155714
-0.00441127
-0.0016978
-0.00453146
-0.00465613
-0.00184239
-0.000113471
-0.00174589
-0.000172098
-0.00210455
-0.000240857
-0.00241522
-0.000318818
-0.00268356
-0.000405088
-0.0029151
-0.000498829
-0.00311531
-0.000599278
-0.00328956
-0.000705758
-0.00344299
-0.000817692
-0.00358039
-0.000934608
-0.00370609
-0.00105614
-0.00382393
-0.00118202
-0.00393715
-0.00131208
-0.00404843
-0.0014462
-0.00415989
-0.00158432
-0.00427314
-0.00172641
-0.00438937
-0.0045101
-0.00187244
-6.8234e-05
-0.00129706
-0.000117212
-0.00169691
-0.000177464
-0.0020443
-0.000247958
-0.00234472
-0.000327705
-0.00260381
-0.000415769
-0.00282703
-0.000511283
-0.0030198
-0.000613462
-0.00318738
-0.00072162
-0.00333483
-0.000835176
-0.00346683
-0.000953662
-0.00358761
-0.00107672
-0.00370088
-0.00120408
-0.00380979
-0.00133558
-0.00391693
-0.00147112
-0.00402435
-0.00161065
-0.00413362
-0.00175413
-0.00424589
-0.00436265
-0.00190157
-7.04743e-05
-0.00125929
-0.000120855
-0.00164653
-0.000182684
-0.00198247
-0.000254859
-0.00227255
-0.000336334
-0.00252234
-0.000426133
-0.00273723
-0.000523357
-0.00292257
-0.000627204
-0.00308354
-0.000736979
-0.00322506
-0.000852098
-0.00335171
-0.000972096
-0.00346761
-0.00109662
-0.00357636
-0.00122541
-0.003681
-0.00135831
-0.00378403
-0.00149522
-0.00388744
-0.00163611
-0.00399273
-0.00178095
-0.00410105
-0.00421383
-0.00192977
-7.26546e-05
-0.0012204
-0.000124396
-0.00159479
-0.000187753
-0.00191911
-0.000261554
-0.00219875
-0.000344699
-0.00243919
-0.00043617
-0.00264576
-0.000535043
-0.0028237
-0.000640497
-0.00297808
-0.000751828
-0.00311373
-0.000868452
-0.00323509
-0.000989905
-0.00334616
-0.00111584
-0.00345043
-0.00124601
-0.00355083
-0.00138025
-0.00364978
-0.0015185
-0.00374919
-0.0016607
-0.00385053
-0.00180687
-0.00395488
-0.00406366
-0.00195704
-7.47723e-05
-0.00118043
-0.000127832
-0.00154173
-0.000192667
-0.00185428
-0.000268037
-0.00212338
-0.000352793
-0.00235444
-0.000445876
-0.00255268
-0.000546334
-0.00272324
-0.000653333
-0.00287108
-0.00076616
-0.0030009
-0.000884229
-0.00311702
-0.00100708
-0.00322331
-0.00113437
-0.00332313
-0.00126587
-0.00341934
-0.00140141
-0.00351423
-0.00154094
-0.00360967
-0.00168443
-0.00370704
-0.00183188
-0.00380743
-0.00391217
-0.00198336
-7.68249e-05
-0.00113942
-0.000131159
-0.0014874
-0.00019742
-0.00178802
-0.000274304
-0.00204649
-0.000360609
-0.00226813
-0.000455242
-0.00245804
-0.000557225
-0.00262126
-0.000665707
-0.0027626
-0.000779969
-0.00288664
-0.000899426
-0.00299756
-0.00102362
-0.00309911
-0.00115222
-0.00319454
-0.00128498
-0.00328657
-0.00142178
-0.00337743
-0.00156255
-0.0034689
-0.00170727
-0.00356232
-0.00185597
-0.00365873
-0.00375941
-0.00200873
-7.881e-05
-0.00109741
-0.000134374
-0.00143183
-0.000202008
-0.00172038
-0.000280348
-0.00196815
-0.000368143
-0.00218034
-0.000464263
-0.00236192
-0.000567708
-0.00251781
-0.000677611
-0.0026527
-0.000793249
-0.002771
-0.000914034
-0.00287678
-0.00103952
-0.00297363
-0.00116936
-0.00306469
-0.00130335
-0.00315258
-0.00144136
-0.00323943
-0.00158332
-0.00332694
-0.00172923
-0.0034164
-0.00187914
-0.00350883
-0.00360541
-0.00203314
-3.77359e-05
-0.000683476
-8.07253e-05
-0.00105442
-0.000137472
-0.00137509
-0.000206428
-0.00165142
-0.000286166
-0.00188842
-0.000375389
-0.00209111
-0.000472934
-0.00226438
-0.000577777
-0.00241297
-0.00068904
-0.00254143
-0.000805993
-0.00265405
-0.00092805
-0.00275472
-0.00105476
-0.00284692
-0.00118581
-0.00293365
-0.00132097
-0.00301742
-0.00146013
-0.00310027
-0.00160324
-0.00318383
-0.00175031
-0.00326934
-0.00190139
-0.00335775
-0.00345021
-0.00205658
-3.86444e-05
-0.000655307
-8.25686e-05
-0.00101049
-0.000140452
-0.0013172
-0.000210675
-0.0015812
-0.000291751
-0.00180734
-0.000382341
-0.00200052
-0.000481248
-0.00216547
-0.000587427
-0.00230679
-0.000699989
-0.00242887
-0.000818197
-0.00253584
-0.000941467
-0.00263145
-0.00106935
-0.00271903
-0.00120154
-0.00280146
-0.00133783
-0.00288113
-0.00147809
-0.00296
-0.00162231
-0.00303962
-0.00177049
-0.00312116
-0.00192269
-0.00320554
-0.00329386
-0.00207905
-3.95171e-05
-0.000626517
-8.43378e-05
-0.000965673
-0.00014331
-0.00125823
-0.000214744
-0.00150977
-0.0002971
-0.00172498
-0.000388994
-0.00190863
-0.000489201
-0.00206527
-0.000596653
-0.00219934
-0.000710451
-0.00231507
-0.000829855
-0.00241644
-0.00095428
-0.00250702
-0.00108329
-0.00259002
-0.00121657
-0.00266818
-0.00135392
-0.00274378
-0.00149525
-0.00281868
-0.00164052
-0.00289435
-0.00178976
-0.00297191
-0.00194305
-0.00305225
-0.00313638
-0.00210052
-4.0353e-05
-0.000597132
-8.6031e-05
-0.000919995
-0.000146043
-0.00119822
-0.000218633
-0.00143718
-0.000302208
-0.00164141
-0.000395345
-0.00181549
-0.000496786
-0.00196382
-0.00060545
-0.00209067
-0.000720423
-0.0022001
-0.000840962
-0.0022959
-0.000966485
-0.0023815
-0.00109656
-0.00245995
-0.00123087
-0.00253386
-0.00136925
-0.0026054
-0.00151159
-0.00267634
-0.00165787
-0.00274807
-0.00180813
-0.00282165
-0.00196246
-0.00289792
-0.00297784
-0.002121
-4.11509e-05
-0.00056718
-8.76462e-05
-0.0008735
-0.000148649
-0.00113722
-0.000222338
-0.00136349
-0.000307072
-0.00155668
-0.000401387
-0.00172118
-0.000504001
-0.00186121
-0.000613812
-0.00198086
-0.000729898
-0.00208402
-0.000851514
-0.00217428
-0.000978077
-0.00225494
-0.00110916
-0.00232887
-0.00124446
-0.00239856
-0.0013838
-0.00246606
-0.0015271
-0.00253304
-0.00167434
-0.00260082
-0.00182558
-0.00267042
-0.0019809
-0.0027426
-0.00281827
-0.00214047
-4.19101e-05
-0.000536687
-8.91819e-05
-0.000826228
-0.000151124
-0.00107528
-0.000225856
-0.00128876
-0.000311687
-0.00147084
-0.000407118
-0.00162575
-0.00051084
-0.00175749
-0.000621735
-0.00186997
-0.000738873
-0.00196688
-0.000861505
-0.00205165
-0.000989051
-0.00212739
-0.00112109
-0.00219684
-0.00125732
-0.00226232
-0.00139758
-0.0023258
-0.00154179
-0.00238883
-0.00168994
-0.00245267
-0.00184211
-0.00251825
-0.00199838
-0.00258633
-0.00265772
-0.00215892
-4.26295e-05
-0.000505683
-9.06362e-05
-0.000778221
-0.000153467
-0.00101244
-0.000229184
-0.00121304
-0.00031605
-0.00138398
-0.000412533
-0.00152927
-0.000517299
-0.00165272
-0.000629215
-0.00175805
-0.000747343
-0.00184875
-0.000870932
-0.00192806
-0.000999403
-0.00199892
-0.00113234
-0.0020639
-0.00126945
-0.00212521
-0.00141058
-0.00218467
-0.00155564
-0.00224376
-0.00170467
-0.00230365
-0.0018577
-0.00236522
-0.00201487
-0.00242916
-0.00249625
-0.00217635
-4.33083e-05
-0.000474197
-9.20076e-05
-0.000729522
-0.000155675
-0.000948778
-0.000232318
-0.0011364
-0.000320157
-0.00129614
-0.000417628
-0.0014318
-0.000523374
-0.00154698
-0.000636248
-0.00164518
-0.000755305
-0.00172969
-0.000879791
-0.00180357
-0.00100913
-0.00186958
-0.00114291
-0.00193013
-0.00128084
-0.00198727
-0.00142278
-0.00204273
-0.00156866
-0.00209788
-0.0017185
-0.00215381
-0.00187237
-0.00221135
-0.00203038
-0.00227114
-0.0023339
-0.00219274
-4.39458e-05
-0.000442257
-9.32948e-05
-0.000680173
-0.000157746
-0.000884327
-0.000235256
-0.00105888
-0.000324006
-0.00120739
-0.0004224
-0.0013334
-0.000529061
-0.00144032
-0.00064283
-0.00153141
-0.000762753
-0.00160977
-0.000888077
-0.00167825
-0.00101823
-0.00173943
-0.00115279
-0.00179556
-0.0012915
-0.00184857
-0.0014342
-0.00190003
-0.00158084
-0.00195125
-0.00173144
-0.00200321
-0.00188608
-0.0020567
-0.0020449
-0.00211232
-0.00217072
-0.00220808
-1.21787e-05
-0.000154975
-4.45411e-05
-0.000409895
-9.44962e-05
-0.000630218
-0.000159678
-0.000819145
-0.000237996
-0.000980566
-0.000327593
-0.00111779
-0.000426845
-0.00123415
-0.000534358
-0.0013328
-0.000648957
-0.00141681
-0.000769686
-0.00148904
-0.000895788
-0.00155215
-0.00102669
-0.00160853
-0.00116199
-0.00166027
-0.00130141
-0.00170914
-0.00144482
-0.00175662
-0.00159217
-0.0018039
-0.00174348
-0.0018519
-0.00189885
-0.00190133
-0.00205841
-0.00195276
-0.00200677
-0.00222236
-1.23388e-05
-0.000142636
-4.50938e-05
-0.00037714
-9.56108e-05
-0.000579701
-0.000161469
-0.000753286
-0.000240535
-0.0009015
-0.000330916
-0.00102741
-0.000430962
-0.0011341
-0.00053926
-0.00122451
-0.000654627
-0.00130144
-0.000776099
-0.00136757
-0.000902919
-0.00142533
-0.00103452
-0.00147693
-0.00117049
-0.00152429
-0.00131058
-0.00156905
-0.00145464
-0.00161256
-0.00160265
-0.0016559
-0.00175462
-0.00169992
-0.00191066
-0.00174529
-0.00207092
-0.0017925
-0.0018421
-0.00223559
-1.24864e-05
-0.00013015
-4.5603e-05
-0.000344023
-9.66373e-05
-0.000528667
-0.000163118
-0.000686805
-0.000242872
-0.000821747
-0.000333971
-0.000936312
-0.000434746
-0.00103333
-0.000543765
-0.00111549
-0.000659836
-0.00118537
-0.00078199
-0.00124541
-0.000909469
-0.00129785
-0.0010417
-0.0013447
-0.0011783
-0.0013877
-0.00131899
-0.00142835
-0.00146366
-0.00146789
-0.00161227
-0.00150729
-0.00176485
-0.00154734
-0.00192152
-0.00158863
-0.00208241
-0.00163161
-0.00167678
-0.00224774
-1.26214e-05
-0.000117528
-4.60683e-05
-0.000310576
-9.75747e-05
-0.00047716
-0.000164624
-0.000619756
-0.000245003
-0.000741368
-0.000336758
-0.000844557
-0.000438196
-0.000931891
-0.000547871
-0.00100581
-0.000664582
-0.00106866
-0.000787356
-0.00112264
-0.000915433
-0.00116977
-0.00104825
-0.00121188
-0.00118541
-0.00125054
-0.00132666
-0.0012871
-0.00147188
-0.00132267
-0.00162103
-0.00135814
-0.00177417
-0.0013942
-0.0019314
-0.00143139
-0.00209288
-0.00147013
-0.00151084
-0.00225881
-1.27437e-05
-0.000104785
-4.64892e-05
-0.000276831
-9.8422e-05
-0.000425227
-0.000165983
-0.000552195
-0.000246927
-0.000660424
-0.000339274
-0.000752211
-0.000441309
-0.000829856
-0.000551575
-0.000895544
-0.000668862
-0.000951372
-0.000792194
-0.000999307
-0.000920811
-0.00104116
-0.00105415
-0.00107854
-0.00119181
-0.00111288
-0.00133357
-0.00114535
-0.00147928
-0.00117696
-0.00162893
-0.00120849
-0.00178257
-0.00124056
-0.00194031
-0.00127365
-0.00210232
-0.00130812
-0.00134436
-0.0022688
-1.2853e-05
-9.19317e-05
-4.68652e-05
-0.000242819
-9.91785e-05
-0.000372914
-0.000167197
-0.000484176
-0.000248644
-0.000578977
-0.000341516
-0.000659339
-0.000444082
-0.00072729
-0.000554874
-0.000784752
-0.000672674
-0.000833572
-0.000796502
-0.000875479
-0.000925598
-0.000912062
-0.0010594
-0.000944741
-0.00119752
-0.000974757
-0.00133971
-0.00100316
-0.00148587
-0.00103081
-0.00163596
-0.0010584
-0.00179005
-0.00108648
-0.00194825
-0.00111545
-0.00211072
-0.00114564
-0.00117739
-0.00227769
-1.29492e-05
-7.89825e-05
-4.7196e-05
-0.000208572
-9.98433e-05
-0.000320267
-0.000168262
-0.000415757
-0.000250151
-0.000497089
-0.000343483
-0.000566006
-0.000446516
-0.000624257
-0.000557768
-0.0006735
-0.000676016
-0.000715324
-0.000800278
-0.000751217
-0.000929793
-0.000782546
-0.001064
-0.000810533
-0.00120252
-0.000836242
-0.0013451
-0.000860573
-0.00149164
-0.000884267
-0.00164212
-0.00090792
-0.0017966
-0.000931996
-0.0019552
-0.000956848
-0.00211809
-0.000982753
-0.00100999
-0.00228549
-1.30324e-05
-6.595e-05
-4.74812e-05
-0.000174123
-0.000100416
-0.000267332
-0.000169179
-0.000346994
-0.000251446
-0.000414822
-0.000345175
-0.000472278
-0.000448606
-0.000520826
-0.000560253
-0.000561853
-0.000678886
-0.000596691
-0.00080352
-0.000626583
-0.000933395
-0.000652671
-0.00106795
-0.000675977
-0.00120681
-0.000697387
-0.00134972
-0.000717654
-0.0014966
-0.000737396
-0.00164741
-0.000757109
-0.00180222
-0.000777179
-0.00196117
-0.000797902
-0.00212442
-0.000819506
-0.000842228
-0.00229218
-1.31025e-05
-5.28475e-05
-4.77205e-05
-0.000139505
-0.000100896
-0.000214157
-0.000169947
-0.000277943
-0.00025253
-0.000332238
-0.000346588
-0.000378219
-0.000450353
-0.000417061
-0.000562329
-0.000449878
-0.000681282
-0.000477738
-0.000806227
-0.000501639
-0.000936401
-0.000522496
-0.00107125
-0.00054113
-0.00121039
-0.000558249
-0.00135358
-0.000574457
-0.00150073
-0.000590249
-0.00165182
-0.00060602
-0.00180692
-0.000622081
-0.00196615
-0.000638667
-0.0021297
-0.000655962
-0.000674153
-0.00229777
-1.31594e-05
-3.96881e-05
-4.79138e-05
-0.000104751
-0.000101282
-0.000160789
-0.000170564
-0.000208661
-0.000253401
-0.000249402
-0.000347724
-0.000283897
-0.000451755
-0.00031303
-0.000563994
-0.000337639
-0.000683204
-0.000358528
-0.000808397
-0.000376446
-0.000938811
-0.000392082
-0.00107389
-0.00040605
-0.00121325
-0.000418885
-0.00135667
-0.000431038
-0.00150404
-0.00044288
-0.00165535
-0.000454709
-0.00181068
-0.000466758
-0.00197014
-0.000479202
-0.00213392
-0.00049218
-0.000505831
-0.00230225
-1.32031e-05
-2.6485e-05
-4.80609e-05
-6.98929e-05
-0.000101575
-0.000107275
-0.000171031
-0.000139205
-0.000254058
-0.000166374
-0.00034858
-0.000189375
-0.000452811
-0.000208798
-0.000565248
-0.000225203
-0.00068465
-0.000239125
-0.000810029
-0.000251067
-0.000940623
-0.000261488
-0.00107588
-0.000270797
-0.00121541
-0.000279351
-0.001359
-0.000287451
-0.00150653
-0.000295346
-0.00165801
-0.000303232
-0.0018135
-0.000311266
-0.00197314
-0.000319564
-0.0021371
-0.000328219
-0.000337323
-0.00230561
-1.32337e-05
-4.81617e-05
-0.000101774
-0.000171346
-0.000254501
-0.000349156
-0.000453521
-0.000566089
-0.000112634
-0.00068562
-0.000119595
-0.000811123
-0.000125565
-0.000941837
-0.000130774
-0.00107721
-0.000135427
-0.00121685
-0.000139704
-0.00136055
-0.000143753
-0.0015082
-0.0001477
-0.00165978
-0.000151644
-0.00181539
-0.000155661
-0.00197514
-0.000159811
-0.00213922
-0.000164139
-0.000168693
-0.00230785
-0.000566518
-0.000686112
-0.000811677
-0.000942451
-0.00107788
-0.00121758
-0.00136133
-0.00150904
-0.00166068
-0.00181634
-0.00197615
-0.00214029
-0.00230898
0.00223787
-0.00146632
-0.00223631
0.00224003
-0.00142332
0.00224234
-0.00137904
0.00224469
-0.00133347
0.00224712
-0.00128702
0.00224968
-0.00123971
0.00225238
-0.00119159
0.00225526
-0.0011427
0.00225832
-0.00109305
0.00226157
-0.00104268
0.00226504
-0.00099161
0.00226873
-0.000939869
0.00227264
-0.000887478
0.00227678
-0.00083446
0.00228115
-0.000780841
0.00228575
-0.000726643
0.00229058
-0.00067189
0.00229564
0.00230296
-0.00146736
-0.00230193
0.00230409
-0.00142445
0.00230539
-0.00138034
0.00230684
-0.00133492
0.00230848
-0.00128866
0.00231033
-0.00124156
0.0023124
-0.00119366
0.0023147
-0.00114499
0.00231723
-0.00109558
0.00232001
-0.00104546
0.00232304
-0.000994638
0.00232632
-0.00094315
0.00232986
-0.000891016
0.00233366
-0.000838257
0.00233771
-0.000784896
0.00234203
-0.000730957
0.00236932
-0.00146729
-0.00236938
0.00236944
-0.00142457
0.00236982
-0.00138072
0.00237046
-0.00133556
0.00237135
-0.00128955
0.00237253
-0.00124273
0.00237397
-0.00119511
0.0023757
-0.00114672
0.0023777
-0.00109759
0.00237999
-0.00104774
0.00238256
-0.000997209
0.00238542
-0.000946007
0.00238856
-0.000894159
0.00239199
-0.000841687
0.00239571
0.00243722
-0.00146625
-0.00243826
0.00243643
-0.00142378
0.00243596
-0.00138026
0.00243582
-0.00133541
0.00243599
-0.00128972
0.00243648
-0.00124323
0.00243729
-0.00119592
0.00243842
-0.00114785
0.00243987
-0.00109903
0.00244163
-0.00104951
0.00244371
-0.000999291
0.00244611
-0.000948405
0.00244882
0.00250682
-0.0014644
-0.00250867
0.00250522
-0.00142218
0.00250397
-0.00137901
0.00250307
-0.00133451
0.00250252
-0.00128917
0.00250232
-0.00124303
0.00250248
-0.00119608
0.00250299
-0.00114835
0.00250384
-0.00109989
0.00250505
-0.00105071
0.0025066
-0.00100085
0.0025781
-0.0014618
-0.00258071
0.00257576
-0.00141984
0.00257376
-0.00137701
0.00257214
-0.00133288
0.00257088
-0.00128791
0.00256999
-0.00124214
0.00256949
-0.00119557
0.00256936
-0.00114823
0.00256961
-0.00110014
0.00257023
0.00265109
-0.00145847
-0.00265442
0.00264803
-0.00141678
0.00264531
-0.00137429
0.00264297
-0.00133054
0.00264102
-0.00128596
0.00263945
-0.00124058
0.00263828
-0.0011944
0.00263751
-0.00114746
0.00272579
-0.00145442
-0.00272983
0.00272202
-0.00141302
0.00271861
-0.00137088
0.00271557
-0.00132751
0.00271293
-0.00128331
0.00271068
-0.00123834
0.00270885
0.00280222
-0.00144966
-0.00280698
0.00279776
-0.00140856
0.00279365
-0.00136677
0.00278993
-0.00132378
0.0027866
-0.00127999
0.00288042
-0.00144418
-0.00288589
0.00287526
-0.0014034
0.00287046
-0.00136196
0.00286605
0.0029604
-0.00143799
-0.0029666
0.00295455
-0.00139754
0.0030422
-0.00304912
0.00225716
5.12698e-05
-5.06367e-05
0.00225546
0.00014324
-0.000141539
0.00225285
0.000225073
-0.000222458
0.00224947
0.000298985
-0.000295606
0.00224544
0.000367295
-0.000363266
0.00224087
0.000431296
-0.00042673
0.00223587
0.00049208
-0.000487078
0.00223054
0.000550338
-0.000545003
0.00222497
0.000606578
-0.000601011
0.00221927
0.000661112
-0.000655415
0.00221355
0.000714124
-0.000708404
0.00220792
0.000765686
-0.000760053
0.00220249
0.000815786
-0.000810354
0.00219737
0.000864337
-0.000859223
0.0021927
0.000911193
-0.000906516
0.00218858
0.000956156
-0.000952037
0.00218514
0.000998984
-0.000995541
0.00218248
0.00103939
-0.00103674
0.00218072
0.00107707
-0.00107531
0.00217994
0.00111166
-0.00111088
0.0021802
0.00114278
-0.00114305
0.00218156
0.00117005
-0.00117141
0.00218402
0.00119304
-0.0011955
0.00218755
0.00121136
-0.00121489
0.00219211
0.00122459
-0.00122915
0.00219762
0.00123238
-0.00123788
0.00220403
0.00123439
-0.0012408
0.00221145
0.00123032
-0.00123774
0.00222071
0.00121957
-0.00122883
0.00120115
-0.00121674
0.00231086
5.18848e-05
0.00230919
0.000144916
0.0023066
0.000227654
0.00230327
0.000302319
0.0022993
0.000371265
0.00229481
0.000435788
0.0022899
0.000496988
0.00228468
0.000555558
0.00227926
0.000612004
0.00227373
0.000666638
0.00226821
0.000719641
0.00226282
0.000771081
0.00225766
0.000820941
0.00225287
0.000869132
0.00224855
0.000915506
0.00224484
0.000959866
0.00224186
0.00100197
0.00223971
0.00104155
0.00223849
0.00107828
0.00223831
0.00111185
0.00223921
0.00114188
0.00224125
0.00116801
0.00224443
0.00118986
0.00224874
0.00120705
0.00225414
0.0012192
0.00226058
0.00122593
0.0022681
0.00122687
0.00227693
0.00122148
0.00228774
0.00120876
0.00118696
0.00236583
5.24821e-05
0.00236419
0.000146562
0.00236165
0.000230192
0.00235837
0.000305599
0.00235447
0.000375165
0.00235007
0.000440191
0.00234527
0.000501786
0.00234018
0.000560644
0.00233491
0.000617271
0.00232958
0.000671975
0.00232428
0.000724935
0.00231915
0.000776215
0.00231429
0.000825796
0.00230984
0.000873584
0.00230592
0.000919432
0.00230264
0.000963143
0.00230013
0.00100448
0.0022985
0.00104317
0.00229786
0.00107893
0.00229828
0.00111142
0.00229984
0.00114032
0.00230257
0.00116528
0.00230649
0.00118594
0.00231158
0.00120196
0.00231782
0.00121296
0.00232519
0.00121857
0.00233374
0.00121833
0.00234366
0.00121156
0.0023553
0.00119713
0.00117287
0.00242211
5.30615e-05
0.0024205
0.000148173
0.00241801
0.00023268
0.0024148
0.000308813
0.00241098
0.000378982
0.00240668
0.000444492
0.00240201
0.00050646
0.00239707
0.00056558
0.00239198
0.000622359
0.00238686
0.000677101
0.00238181
0.000729983
0.00237696
0.000781066
0.00237243
0.000830326
0.00236834
0.00087767
0.00236483
0.000922948
0.00236201
0.000965964
0.00236
0.00100649
0.00235892
0.00104425
0.00235887
0.00107898
0.00235992
0.00111037
0.00236215
0.00113809
0.00236559
0.00116184
0.00237025
0.00118128
0.00237613
0.00119608
0.0023832
0.00120588
0.00239146
0.00121031
0.00240095
0.00120884
0.00241179
0.00120071
0.00242414
0.00118478
0.00115875
0.00247973
5.36222e-05
0.00247816
0.000149745
0.00247573
0.000235109
0.00247259
0.000311951
0.00246887
0.000382702
0.00246469
0.000448674
0.00246016
0.000510992
0.00245539
0.000570346
0.0024505
0.000627246
0.00244561
0.000681994
0.00244083
0.000734762
0.00243629
0.000785608
0.00243211
0.000834507
0.00242842
0.000881363
0.00242534
0.000926026
0.002423
0.000968303
0.00242152
0.00100797
0.002421
0.00104477
0.00242156
0.00107843
0.00242326
0.00110866
0.00242617
0.00113518
0.00243033
0.00115768
0.00243574
0.00117587
0.0024424
0.00118941
0.0024503
0.00119799
0.00245941
0.00120119
0.00246977
0.00119849
0.00248142
0.00118906
0.00249439
0.00117181
0.00114448
0.00253872
5.41634e-05
0.00253719
0.000151272
0.00253483
0.000237471
0.00253178
0.000315001
0.00252817
0.000386313
0.00252412
0.000452724
0.00251975
0.000515363
0.00251517
0.000574924
0.0025105
0.000631913
0.00250587
0.000686631
0.00250138
0.000739247
0.00249717
0.000789817
0.00249337
0.000838312
0.00249009
0.000884637
0.00248748
0.000928642
0.00248564
0.000970136
0.00248471
0.0010089
0.00248479
0.00104469
0.00248597
0.00107724
0.00248834
0.0011063
0.00249194
0.00113158
0.00249683
0.0011528
0.00250299
0.0011697
0.00251044
0.00118197
0.00251914
0.00118929
0.00252907
0.00119126
0.00254024
0.00118732
0.00255262
0.00117668
0.00256616
0.00115826
0.00112993