/*--------------------------------*- C++ -*----------------------------------*\
  =========                 |
  \\      /  F ield         | OpenFOAM: The Open Source CFD Toolbox
   \\    /   O peration     | Website:  https://openfoam.org
    \\  /    A nd           | Version:  7
     \\/     M anipulation  |
\*---------------------------------------------------------------------------*/
FoamFile
{
    version     2.0;
    format      ascii;
    class       surfaceScalarField;
    location    "20";
    object      phi;
}
// * * * * * * * * * * * * * * * * * * * * * * * * * * * * * * * * * * * * * //

dimensions      [0 3 -1 0 0 0 0];

internalField   nonuniform List<scalar> 
5147
(
0.004342
4.58105e-06
0.00433737
4.62481e-06
0.00433271
4.66794e-06
0.004328
4.71066e-06
0.00432324
4.75321e-06
0.00431845
4.79579e-06
0.00431361
4.83862e-06
0.00430873
4.88191e-06
0.0043038
4.92586e-06
0.00429883
4.97069e-06
0.00429381
5.01659e-06
0.00428875
5.06376e-06
0.00428364
5.11239e-06
0.00427847
5.1627e-06
0.00427326
5.21486e-06
0.00426799
5.2691e-06
0.00426266
5.32559e-06
0.00425728
5.38457e-06
0.00425183
5.44624e-06
0.00424632
5.51082e-06
0.00424074
5.57857e-06
0.00423509
5.64971e-06
0.00422937
5.72454e-06
0.00422357
5.8033e-06
0.00421768
5.88637e-06
0.00421171
5.97399e-06
0.00420564
6.06668e-06
0.00419947
6.16458e-06
0.00419321
6.26856e-06
0.00418683
6.37842e-06
0.00418033
6.49575e-06
0.00417371
6.61944e-06
0.00416696
6.75275e-06
0.00416007
6.89225e-06
0.00415302
7.04496e-06
0.00414582
7.20204e-06
0.00413844
7.37891e-06
0.00413089
7.55432e-06
0.00412313
7.76233e-06
0.00411517
7.95426e-06
0.00410697
8.20451e-06
0.00409856
8.40531e-06
0.00408984
8.71659e-06
0.00408094
8.90679e-06
0.00407163
9.31215e-06
0.00406218
9.4498e-06
0.00405217
1.00066e-05
0.00404216
1.00126e-05
0.00403135
1.08069e-05
0.00402079
1.05601e-05
1.14721e-05
0.00429112
9.11401e-06
0.00428654
9.20097e-06
0.00428192
9.28668e-06
0.00427726
9.37159e-06
0.00427256
9.45614e-06
0.00426781
9.54075e-06
0.00426303
9.62585e-06
0.0042582
9.71187e-06
0.00425332
9.79921e-06
0.0042484
9.88827e-06
0.00424344
9.97946e-06
0.00423843
1.00732e-05
0.00423337
1.01698e-05
0.00422827
1.02697e-05
0.00422311
1.03734e-05
0.0042179
1.04811e-05
0.00421263
1.05933e-05
0.0042073
1.07105e-05
0.00420192
1.0833e-05
0.00419647
1.09613e-05
0.00419095
1.10959e-05
0.00418536
1.12372e-05
0.0041797
1.13858e-05
0.00417396
1.15423e-05
0.00416814
1.17073e-05
0.00416223
1.18814e-05
0.00415623
1.20655e-05
0.00415014
1.226e-05
0.00414394
1.24665e-05
0.00413763
1.26849e-05
0.00413121
1.29178e-05
0.00412467
1.31638e-05
0.00411799
1.34281e-05
0.00411118
1.37061e-05
0.00410422
1.40083e-05
0.00409709
1.43223e-05
0.0040898
1.46707e-05
0.00408233
1.50238e-05
0.00407467
1.54301e-05
0.0040668
1.5822e-05
0.0040587
1.63035e-05
0.00405038
1.67261e-05
0.00404179
1.73094e-05
0.00403295
1.77395e-05
0.0040238
1.8468e-05
0.00401439
1.88548e-05
0.0040046
1.97956e-05
0.00399457
2.00492e-05
0.0039841
2.12771e-05
0.00397336
2.1297e-05
2.26202e-05
0.00424067
1.36045e-05
0.00423613
1.37341e-05
0.00423156
1.38618e-05
0.00422694
1.39883e-05
0.00422228
1.41143e-05
0.00421758
1.42403e-05
0.00421284
1.43671e-05
0.00420806
1.44953e-05
0.00420323
1.46254e-05
0.00419836
1.4758e-05
0.00419345
1.48938e-05
0.00418849
1.50334e-05
0.00418348
1.51773e-05
0.00417842
1.53261e-05
0.00417332
1.54805e-05
0.00416816
1.56409e-05
0.00416294
1.5808e-05
0.00415767
1.59825e-05
0.00415234
1.61649e-05
0.00414694
1.63559e-05
0.00414148
1.65563e-05
0.00413596
1.67667e-05
0.00413035
1.69881e-05
0.00412467
1.72211e-05
0.00411891
1.74668e-05
0.00411307
1.7726e-05
0.00410714
1.80001e-05
0.00410111
1.82898e-05
0.00409497
1.85972e-05
0.00408874
1.89225e-05
0.00408239
1.92692e-05
0.00407591
1.96358e-05
0.00406931
2.00291e-05
0.00406258
2.04436e-05
0.00405569
2.08928e-05
0.00404865
2.13616e-05
0.00404144
2.18788e-05
0.00403406
2.24074e-05
0.00402648
2.30087e-05
0.0040187
2.35984e-05
0.0040107
2.43065e-05
0.00400248
2.49498e-05
0.00399399
2.57983e-05
0.00398526
2.64695e-05
0.00397622
2.75098e-05
0.00396692
2.81523e-05
0.00395726
2.94569e-05
0.00394733
2.99765e-05
0.00393701
3.1602e-05
0.00392638
3.19272e-05
3.36126e-05
0.00419065
1.80578e-05
0.00418616
1.82294e-05
0.00418162
1.83985e-05
0.00417704
1.85661e-05
0.00417243
1.87328e-05
0.00416777
1.88997e-05
0.00416307
1.90675e-05
0.00415832
1.92371e-05
0.00415354
1.94093e-05
0.00414871
1.95848e-05
0.00414384
1.97645e-05
0.00413893
1.99492e-05
0.00413396
2.01396e-05
0.00412895
2.03365e-05
0.00412389
2.05407e-05
0.00411878
2.0753e-05
0.00411362
2.09741e-05
0.00410839
2.12048e-05
0.00410311
2.14462e-05
0.00409777
2.16989e-05
0.00409236
2.19639e-05
0.00408689
2.22423e-05
0.00408134
2.25351e-05
0.00407572
2.28433e-05
0.00407002
2.31683e-05
0.00406423
2.35112e-05
0.00405836
2.38738e-05
0.00405239
2.42571e-05
0.00404632
2.46638e-05
0.00404015
2.50941e-05
0.00403387
2.55527e-05
0.00402746
2.60379e-05
0.00402094
2.65581e-05
0.00401427
2.71069e-05
0.00400746
2.77007e-05
0.0040005
2.83221e-05
0.00399338
2.90051e-05
0.00398608
2.97067e-05
0.00397859
3.04992e-05
0.0039709
3.12847e-05
0.00396299
3.22143e-05
0.00395487
3.30772e-05
0.00394648
3.41834e-05
0.00393785
3.50971e-05
0.00392893
3.6437e-05
0.00391974
3.73423e-05
0.0039102
3.89895e-05
0.00390039
3.9794e-05
0.00389021
4.17797e-05
0.00387969
4.24493e-05
4.44471e-05
0.00414108
2.24788e-05
0.00413662
2.26918e-05
0.00413211
2.29017e-05
0.00412757
2.31095e-05
0.00412299
2.33165e-05
0.00411836
2.35235e-05
0.0041137
2.37316e-05
0.00410899
2.3942e-05
0.00410425
2.41555e-05
0.00409946
2.43732e-05
0.00409463
2.45961e-05
0.00408975
2.48251e-05
0.00408483
2.50612e-05
0.00407986
2.53053e-05
0.00407484
2.55584e-05
0.00406977
2.58215e-05
0.00406465
2.60956e-05
0.00405948
2.63817e-05
0.00405424
2.66808e-05
0.00404895
2.6994e-05
0.00404359
2.73225e-05
0.00403816
2.76676e-05
0.00403267
2.80304e-05
0.0040271
2.84125e-05
0.00402145
2.88153e-05
0.00401572
2.92404e-05
0.00400991
2.96898e-05
0.004004
3.0165e-05
0.00399799
3.0669e-05
0.00399188
3.12026e-05
0.00398567
3.1771e-05
0.00397933
3.23727e-05
0.00397287
3.30174e-05
0.00396628
3.36982e-05
0.00395955
3.4434e-05
0.00395266
3.52053e-05
0.00394562
3.60509e-05
0.0039384
3.69232e-05
0.003931
3.79029e-05
0.0039234
3.88819e-05
0.00391559
4.00278e-05
0.00390756
4.11087e-05
0.00389927
4.24653e-05
0.00389075
4.36222e-05
0.00388194
4.52499e-05
0.00387285
4.64242e-05
0.00386345
4.83934e-05
0.00385374
4.95002e-05
0.00384371
5.18104e-05
0.0038333
5.28601e-05
5.51231e-05
0.00409194
2.68721e-05
0.00408751
2.71258e-05
0.00408304
2.73757e-05
0.00407852
2.76233e-05
0.00407397
2.78696e-05
0.00406938
2.81161e-05
0.00406474
2.83639e-05
0.00406007
2.86143e-05
0.00405536
2.88684e-05
0.0040506
2.91275e-05
0.00404581
2.93927e-05
0.00404097
2.96651e-05
0.00403608
2.9946e-05
0.00403115
3.02363e-05
0.00402617
3.05374e-05
0.00402114
3.08504e-05
0.00401606
3.11764e-05
0.00401093
3.15166e-05
0.00400574
3.18724e-05
0.00400049
3.22449e-05
0.00399517
3.26356e-05
0.00398979
3.3046e-05
0.00398435
3.34775e-05
0.00397883
3.39318e-05
0.00397323
3.44109e-05
0.00396756
3.49164e-05
0.0039618
3.5451e-05
0.00395594
3.60161e-05
0.00395
3.66157e-05
0.00394395
3.72504e-05
0.00393779
3.79264e-05
0.00393152
3.86424e-05
0.00392513
3.94091e-05
0.00391861
4.02194e-05
0.00391195
4.10943e-05
0.00390514
4.2013e-05
0.00389818
4.3018e-05
0.00389104
4.4058e-05
0.00388372
4.5221e-05
0.00387621
4.63908e-05
0.00386849
4.77479e-05
0.00386056
4.9045e-05
0.00385238
5.06444e-05
0.00384396
5.20449e-05
0.00383526
5.39487e-05
0.00382628
5.53971e-05
0.00381701
5.76688e-05
0.00380742
5.90932e-05
0.00379753
6.16946e-05
0.00378724
6.31564e-05
6.56403e-05
0.00404325
3.12417e-05
0.00403884
3.15354e-05
0.00403439
3.18248e-05
0.0040299
3.21113e-05
0.00402538
3.23964e-05
0.00402081
3.26815e-05
0.00401621
3.29682e-05
0.00401156
3.32579e-05
0.00400688
3.35518e-05
0.00400215
3.38514e-05
0.00399739
3.4158e-05
0.00399258
3.4473e-05
0.00398773
3.47977e-05
0.00398283
3.51334e-05
0.00397789
3.54815e-05
0.0039729
3.58432e-05
0.00396785
3.622e-05
0.00396276
3.66132e-05
0.0039576
3.70243e-05
0.00395239
3.74548e-05
0.00394712
3.79064e-05
0.00394179
3.83806e-05
0.00393639
3.88793e-05
0.00393091
3.94043e-05
0.00392537
3.9958e-05
0.00391974
4.05422e-05
0.00391403
4.116e-05
0.00390824
4.18132e-05
0.00390234
4.25061e-05
0.00389636
4.32398e-05
0.00389026
4.40212e-05
0.00388405
4.4849e-05
0.00387773
4.57352e-05
0.00387127
4.66724e-05
0.00386469
4.76835e-05
0.00385795
4.87466e-05
0.00385106
4.99076e-05
0.00384401
5.11124e-05
0.00383677
5.24545e-05
0.00382935
5.38123e-05
0.00382173
5.53753e-05
0.00381388
5.68864e-05
0.00380581
5.87212e-05
0.00379749
6.03651e-05
0.0037889
6.25335e-05
0.00378004
6.42607e-05
0.00377089
6.68157e-05
0.00376141
6.85718e-05
0.00375168
7.14324e-05
0.0037415
7.33355e-05
7.5998e-05
0.00399499
3.55915e-05
0.00399061
3.59246e-05
0.00398618
3.62526e-05
0.00398171
3.65773e-05
0.00397721
3.69004e-05
0.00397267
3.72235e-05
0.00396809
3.75483e-05
0.00396347
3.78764e-05
0.00395881
3.82093e-05
0.00395411
3.85485e-05
0.00394937
3.88957e-05
0.00394459
3.92523e-05
0.00393977
3.96199e-05
0.00393491
3.99999e-05
0.00392999
4.03938e-05
0.00392503
4.08031e-05
0.00392002
4.12295e-05
0.00391496
4.16745e-05
0.00390985
4.21397e-05
0.00390468
4.26268e-05
0.00389944
4.31377e-05
0.00389415
4.36743e-05
0.00388879
4.42386e-05
0.00388336
4.48326e-05
0.00387786
4.54591e-05
0.00387228
4.61202e-05
0.00386662
4.68193e-05
0.00386088
4.75585e-05
0.00385504
4.83426e-05
0.00384911
4.91731e-05
0.00384307
5.00574e-05
0.00383693
5.09945e-05
0.00383067
5.19975e-05
0.00382428
5.30589e-05
0.00381776
5.42031e-05
0.0038111
5.54077e-05
0.00380429
5.67211e-05
0.00379731
5.80876e-05
0.00379016
5.96045e-05
0.00378283
6.11473e-05
0.00377529
6.29107e-05
0.00376754
6.46335e-05
0.00375957
6.66962e-05
0.00375135
6.8583e-05
0.00374288
7.10047e-05
0.00373413
7.30143e-05
0.00372511
7.58342e-05
0.00371574
7.79349e-05
0.00370615
8.10241e-05
0.00369609
8.33953e-05
8.6196e-05
0.00394718
3.99251e-05
0.00394281
4.02967e-05
0.0039384
4.06627e-05
0.00393395
4.10249e-05
0.00392946
4.13852e-05
0.00392494
4.17454e-05
0.00392038
4.21075e-05
0.00391579
4.24731e-05
0.00391115
4.28441e-05
0.00390648
4.32221e-05
0.00390177
4.36089e-05
0.00389701
4.40062e-05
0.00389222
4.44155e-05
0.00388738
4.48387e-05
0.00388249
4.52773e-05
0.00387756
4.57332e-05
0.00387258
4.62079e-05
0.00386756
4.67033e-05
0.00386247
4.72212e-05
0.00385734
4.77636e-05
0.00385214
4.83323e-05
0.00384689
4.89296e-05
0.00384157
4.95578e-05
0.00383618
5.02192e-05
0.00383072
5.09167e-05
0.00382519
5.16527e-05
0.00381958
5.2431e-05
0.00381388
5.32541e-05
0.0038081
5.41272e-05
0.00380222
5.5052e-05
0.00379624
5.60368e-05
0.00379016
5.70806e-05
0.00378396
5.81976e-05
0.00377763
5.93802e-05
0.00377118
6.06544e-05
0.00376459
6.19975e-05
0.00375785
6.34595e-05
0.00375096
6.49845e-05
0.00374389
6.66719e-05
0.00373664
6.83965e-05
0.0037292
7.03548e-05
0.00372154
7.22867e-05
0.00371367
7.45697e-05
0.00370556
7.66985e-05
0.0036972
7.93624e-05
0.00368855
8.16578e-05
0.00367966
8.47245e-05
0.00367042
8.71813e-05
0.00366097
9.04698e-05
0.00365103
9.33337e-05
9.62338e-05
0.0038998
4.42456e-05
0.00389544
4.4655e-05
0.00389105
4.50581e-05
0.00388662
4.5457e-05
0.00388215
4.58537e-05
0.00387764
4.62503e-05
0.0038731
4.66488e-05
0.00386852
4.70511e-05
0.00386391
4.74592e-05
0.00385926
4.78751e-05
0.00385456
4.83005e-05
0.00384983
4.87373e-05
0.00384506
4.91874e-05
0.00384025
4.96527e-05
0.00383539
5.01349e-05
0.00383049
5.0636e-05
0.00382554
5.11578e-05
0.00382054
5.17023e-05
0.00381549
5.22715e-05
0.00381038
5.28675e-05
0.00380522
5.34926e-05
0.0038
5.4149e-05
0.00379472
5.48393e-05
0.00378938
5.55662e-05
0.00378396
5.63327e-05
0.00377847
5.71417e-05
0.0037729
5.79971e-05
0.00376726
5.89019e-05
0.00376152
5.98616e-05
0.0037557
6.08784e-05
0.00374977
6.19609e-05
0.00374374
6.31089e-05
0.0037376
6.43369e-05
0.00373135
6.56379e-05
0.00372496
6.70387e-05
0.00371844
6.8517e-05
0.00371178
7.0124e-05
0.00370496
7.18041e-05
0.00369797
7.36575e-05
0.00369081
7.55605e-05
0.00368346
7.77081e-05
0.0036759
7.98463e-05
0.00366812
8.23422e-05
0.00366011
8.47118e-05
0.00365187
8.76067e-05
0.00364333
9.01906e-05
0.00363457
9.34866e-05
0.00362544
9.63101e-05
0.00361614
9.97697e-05
0.00360633
0.000103149
0.000106111
0.00385286
4.85559e-05
0.00384852
4.90023e-05
0.00384413
4.94417e-05
0.00383971
4.98765e-05
0.00383526
5.03087e-05
0.00383077
5.07408e-05
0.00382624
5.11748e-05
0.00382168
5.1613e-05
0.00381708
5.20573e-05
0.00381245
5.251e-05
0.00380777
5.2973e-05
0.00380306
5.34484e-05
0.00379831
5.39381e-05
0.00379352
5.44443e-05
0.00378869
5.49689e-05
0.00378381
5.55139e-05
0.00377888
5.60814e-05
0.00377391
5.66736e-05
0.00376889
5.72926e-05
0.00376382
5.79408e-05
0.00375869
5.86206e-05
0.00375351
5.93344e-05
0.00374826
6.00852e-05
0.00374295
6.08756e-05
0.00373757
6.17092e-05
0.00373213
6.2589e-05
0.0037266
6.35194e-05
0.003721
6.45036e-05
0.00371532
6.55475e-05
0.00370954
6.66537e-05
0.00370367
6.78314e-05
0.0036977
6.90806e-05
0.00369162
7.04167e-05
0.00368542
7.1833e-05
0.00367911
7.33572e-05
0.00367266
7.49674e-05
0.00366606
7.67155e-05
0.00365932
7.85471e-05
0.00365242
8.0562e-05
0.00364534
8.264e-05
0.00363807
8.49713e-05
0.00363061
8.73127e-05
0.00362294
9.00139e-05
0.00361502
9.2623e-05
0.00360689
9.5738e-05
0.00359847
9.86125e-05
0.00358984
0.000102121
0.00358083
0.00010532
0.00357167
0.000108924
0.00356198
0.000112839
0.000115828
0.00380636
5.28586e-05
0.00380202
5.33412e-05
0.00379765
5.38161e-05
0.00379324
5.42858e-05
0.00378879
5.47528e-05
0.00378431
5.52194e-05
0.0037798
5.56881e-05
0.00377525
5.61611e-05
0.00377067
5.66407e-05
0.00376605
5.71292e-05
0.00376139
5.76288e-05
0.0037567
5.81416e-05
0.00375197
5.86698e-05
0.0037472
5.92157e-05
0.00374238
5.97814e-05
0.00373753
6.0369e-05
0.00373263
6.09809e-05
0.00372768
6.16194e-05
0.00372269
6.22867e-05
0.00371765
6.29854e-05
0.00371255
6.37182e-05
0.00370739
6.44877e-05
0.00370218
6.5297e-05
0.00369691
6.61491e-05
0.00369157
6.70478e-05
0.00368616
6.79963e-05
0.00368068
6.89995e-05
0.00367513
7.00606e-05
0.00366949
7.11863e-05
0.00366376
7.23793e-05
0.00365794
7.36494e-05
0.00365203
7.49971e-05
0.00364601
7.64381e-05
0.00363987
7.79667e-05
0.00363362
7.96107e-05
0.00362724
8.13494e-05
0.00362072
8.32348e-05
0.00361405
8.52143e-05
0.00360723
8.73861e-05
0.00360023
8.96354e-05
0.00359306
9.21447e-05
0.00358568
9.46862e-05
0.00357811
9.75853e-05
0.0035703
0.000100432
0.00356228
0.000103756
0.00355397
0.000106923
0.00354547
0.000110627
0.00353658
0.000114212
0.00352757
0.000117933
0.003518
0.000122403
0.000125385
0.00376029
5.7156e-05
0.00375596
5.76739e-05
0.00375159
5.81835e-05
0.00374719
5.86873e-05
0.00374275
5.91881e-05
0.00373828
5.96884e-05
0.00373378
6.01908e-05
0.00372924
6.06976e-05
0.00372467
6.12115e-05
0.00372007
6.17348e-05
0.00371543
6.22698e-05
0.00371075
6.28189e-05
0.00370603
6.33845e-05
0.00370128
6.39689e-05
0.00369649
6.45743e-05
0.00369165
6.52033e-05
0.00368678
6.58581e-05
0.00368185
6.65413e-05
0.00367689
6.72554e-05
0.00367187
6.80031e-05
0.0036668
6.87871e-05
0.00366168
6.96105e-05
0.0036565
7.04765e-05
0.00365126
7.13883e-05
0.00364595
7.235e-05
0.00364059
7.3365e-05
0.00363515
7.44386e-05
0.00362963
7.55743e-05
0.00362404
7.67792e-05
0.00361836
7.80565e-05
0.0036126
7.94162e-05
0.00360673
8.08593e-05
0.00360077
8.24023e-05
0.0035947
8.40398e-05
0.00358851
8.58002e-05
0.00358219
8.7664e-05
0.00357575
8.96825e-05
0.00356915
9.18064e-05
0.00356241
9.41304e-05
0.0035555
9.65473e-05
0.00354841
9.92289e-05
0.00354113
0.000101967
0.00353366
0.000105057
0.00352595
0.000108139
0.00351805
0.000111662
0.00350985
0.000115123
0.00350147
0.000119006
0.0034927
0.000122983
0.00348383
0.000126797
0.0034744
0.00013184
0.000134781
0.00371465
6.14501e-05
0.00371032
6.20025e-05
0.00370596
6.25458e-05
0.00370156
6.30829e-05
0.00369713
6.36166e-05
0.00369267
6.41496e-05
0.00368818
6.46847e-05
0.00368365
6.52244e-05
0.00367909
6.57715e-05
0.0036745
6.63285e-05
0.00366987
6.68979e-05
0.00366521
6.74822e-05
0.00366051
6.80839e-05
0.00365577
6.87054e-05
0.003651
6.93494e-05
0.00364618
7.00183e-05
0.00364132
7.07146e-05
0.00363642
7.1441e-05
0.00363148
7.22003e-05
0.00362649
7.29952e-05
0.00362145
7.38288e-05
0.00361635
7.47042e-05
0.0036112
7.56249e-05
0.003606
7.65944e-05
0.00360073
7.76169e-05
0.0035954
7.86963e-05
0.00359
7.98379e-05
0.00358453
8.10459e-05
0.00357898
8.23274e-05
0.00357335
8.36861e-05
0.00356763
8.51325e-05
0.00356183
8.66682e-05
0.00355592
8.83099e-05
0.0035499
9.00532e-05
0.00354378
9.19264e-05
0.00353753
9.39117e-05
0.00353115
9.60594e-05
0.00352464
9.83238e-05
0.00351797
0.000100795
0.00351114
0.000103376
0.00350415
0.000106224
0.00349696
0.000109156
0.00348959
0.000112428
0.00348198
0.000115744
0.00347419
0.000119456
0.0034661
0.00012321
0.00345785
0.000127257
0.0034492
0.000131634
0.00344048
0.000135517
0.00343117
0.000141148
0.000144016
0.00366944
6.57427e-05
0.00366511
6.63287e-05
0.00366075
6.69049e-05
0.00365636
6.74743e-05
0.00365194
6.80399e-05
0.00364748
6.86047e-05
0.003643
6.91715e-05
0.00363848
6.97431e-05
0.00363393
7.03224e-05
0.00362934
7.09119e-05
0.00362473
7.15145e-05
0.00362008
7.21328e-05
0.00361539
7.27693e-05
0.00361067
7.34268e-05
0.00360591
7.41079e-05
0.00360111
7.48153e-05
0.00359628
7.55516e-05
0.0035914
7.63198e-05
0.00358648
7.71225e-05
0.00358151
7.7963e-05
0.00357649
7.88444e-05
0.00357143
7.97699e-05
0.00356631
8.07434e-05
0.00356113
8.17685e-05
0.0035559
8.28497e-05
0.00355061
8.39911e-05
0.00354525
8.51984e-05
0.00353982
8.64761e-05
0.00353431
8.78316e-05
0.00352873
8.9269e-05
0.00352306
9.07993e-05
0.0035173
9.24246e-05
0.00351145
9.41617e-05
0.0035055
9.60075e-05
0.00349944
9.79898e-05
0.00349325
0.000100093
0.00348695
0.000102366
0.0034805
0.000104767
0.00347392
0.000107381
0.00346717
0.000110122
0.00346027
0.000113131
0.00345317
0.000116252
0.0034459
0.0001197
0.00343839
0.000123247
0.00343071
0.000127137
0.00342274
0.000131186
0.00341461
0.000135381
0.00340608
0.000140163
0.00339751
0.000144092
0.00338833
0.000150326
0.000153091
0.00362465
7.00354e-05
0.00362033
7.0654e-05
0.00361597
7.12621e-05
0.00361158
7.18629e-05
0.00360716
7.24595e-05
0.00360271
7.3055e-05
0.00359823
7.36526e-05
0.00359372
7.4255e-05
0.00358918
7.48653e-05
0.0035846
7.54864e-05
0.00358
7.6121e-05
0.00357536
7.6772e-05
0.00357068
7.74422e-05
0.00356598
7.81343e-05
0.00356123
7.88512e-05
0.00355645
7.95956e-05
0.00355163
8.03704e-05
0.00354678
8.11786e-05
0.00354187
8.20233e-05
0.00353693
8.29076e-05
0.00353194
8.38349e-05
0.0035269
8.48087e-05
0.00352181
8.58329e-05
0.00351667
8.69115e-05
0.00351147
8.80492e-05
0.00350621
8.92504e-05
0.00350089
9.0521e-05
0.0034955
9.18658e-05
0.00349004
9.32926e-05
0.0034845
9.4806e-05
0.00347888
9.64172e-05
0.00347318
9.8129e-05
0.00346738
9.99583e-05
0.00346148
0.000101903
0.00345548
0.000103991
0.00344937
0.000106209
0.00344313
0.000108602
0.00343676
0.000111137
0.00343025
0.000113889
0.00342359
0.000116785
0.00341677
0.000119949
0.00340977
0.000123257
0.0034026
0.000126873
0.00339519
0.000130648
0.00338763
0.000134706
0.00337976
0.00013905
0.00337176
0.000143378
0.00336336
0.000148571
0.00335492
0.000152523
0.00334588
0.000159373
0.000162006
0.00358029
7.43295e-05
0.00357597
7.49798e-05
0.00357161
7.56188e-05
0.00356722
7.625e-05
0.00356281
7.68766e-05
0.00355836
7.75019e-05
0.00355388
7.81291e-05
0.00354938
7.87613e-05
0.00354484
7.94016e-05
0.00354027
8.0053e-05
0.00353568
8.07184e-05
0.00353105
8.1401e-05
0.00352639
8.21035e-05
0.00352169
8.28288e-05
0.00351696
8.358e-05
0.0035122
8.436e-05
0.0035074
8.51718e-05
0.00350256
8.60185e-05
0.00349768
8.69034e-05
0.00349276
8.78297e-05
0.00348779
8.88011e-05
0.00348278
8.98212e-05
0.00347772
9.08942e-05
0.0034726
9.20242e-05
0.00346744
9.32161e-05
0.00346221
9.44747e-05
0.00345693
9.58062e-05
0.00345158
9.72156e-05
0.00344616
9.8711e-05
0.00344067
0.000100298
0.0034351
0.000101987
0.00342944
0.000103782
0.0034237
0.0001057
0.00341786
0.000107741
0.00341193
0.000109931
0.00340588
0.000112259
0.00339971
0.000114769
0.00339341
0.000117432
0.00338698
0.000120318
0.0033804
0.000123366
0.00337367
0.00012668
0.00336676
0.000130169
0.00335969
0.000133946
0.00335239
0.000137947
0.00334493
0.000142163
0.00333718
0.000146801
0.00332931
0.000151249
0.00332102
0.000156858
0.00331273
0.000160811
0.00330382
0.000168289
0.000170762
0.00353636
7.8626e-05
0.00353203
7.9307e-05
0.00352767
7.9976e-05
0.00352328
8.06366e-05
0.00351887
8.12922e-05
0.00351442
8.19462e-05
0.00350995
8.2602e-05
0.00350545
8.32628e-05
0.00350092
8.39319e-05
0.00349636
8.46125e-05
0.00349177
8.53076e-05
0.00348715
8.60204e-05
0.0034825
8.67539e-05
0.00347782
8.75112e-05
0.0034731
8.82953e-05
0.00346835
8.91094e-05
0.00346357
8.99566e-05
0.00345875
9.08402e-05
0.00345389
9.17635e-05
0.00344899
9.27301e-05
0.00344404
9.37437e-05
0.00343906
9.48082e-05
0.00343402
9.59278e-05
0.00342894
9.71071e-05
0.00342381
9.83511e-05
0.00341862
9.96647e-05
0.00341337
0.000101055
0.00340806
0.000102526
0.00340268
0.000104087
0.00339723
0.000105744
0.00339171
0.000107508
0.00338611
0.000109384
0.00338042
0.000111388
0.00337464
0.000113521
0.00336877
0.000115809
0.00336278
0.000118244
0.00335668
0.000120867
0.00335046
0.000123655
0.00334411
0.000126669
0.00333761
0.000129865
0.00333097
0.000133322
0.00332415
0.00013699
0.00331717
0.000140921
0.00330998
0.000145144
0.00330263
0.000149508
0.00329499
0.00015444
0.00328725
0.000158993
0.00327908
0.000165021
0.00327094
0.000168956
0.00326215
0.000177073
0.000179358
0.00349284
8.29259e-05
0.00348851
8.36366e-05
0.00348415
8.43346e-05
0.00347976
8.50235e-05
0.00347535
8.5707e-05
0.0034709
8.63887e-05
0.00346643
8.7072e-05
0.00346194
8.77604e-05
0.00345741
8.84572e-05
0.00345286
8.91657e-05
0.00344828
8.98893e-05
0.00344367
9.0631e-05
0.00343902
9.13942e-05
0.00343435
9.2182e-05
0.00342965
9.29976e-05
0.00342492
9.38442e-05
0.00342015
9.47253e-05
0.00341534
9.56441e-05
0.0034105
9.66041e-05
0.00340562
9.76092e-05
0.00340071
9.86631e-05
0.00339574
9.977e-05
0.00339074
0.000100934
0.00338568
0.000102161
0.00338058
0.000103454
0.00337542
0.000104821
0.00337021
0.000106266
0.00336494
0.000107797
0.00335961
0.000109422
0.00335421
0.000111146
0.00334873
0.000112982
0.00334318
0.000114935
0.00333755
0.000117021
0.00333182
0.000119243
0.00332601
0.000121625
0.00332009
0.000124164
0.00331406
0.000126895
0.00330791
0.000129805
0.00330164
0.000132942
0.00329522
0.000136282
0.00328867
0.000139877
0.00328194
0.000143719
0.00327506
0.000147797
0.00326797
0.000152239
0.00326073
0.000156742
0.00325321
0.000161967
0.00324559
0.000166612
0.00323755
0.000173062
0.00322954
0.000176958
0.00322089
0.000185724
0.000187796
0.00344973
8.72298e-05
0.0034454
8.79692e-05
0.00344104
8.86951e-05
0.00343665
8.94113e-05
0.00343224
9.01217e-05
0.0034278
9.083e-05
0.00342333
9.15397e-05
0.00341883
9.22545e-05
0.00341431
9.29778e-05
0.00340977
9.37131e-05
0.00340519
9.44638e-05
0.00340059
9.52332e-05
0.00339596
9.60247e-05
0.0033913
9.68416e-05
0.00338661
9.76872e-05
0.00338189
9.85649e-05
0.00337714
9.94782e-05
0.00337235
0.000100431
0.00336753
0.000101426
0.00336267
0.000102467
0.00335777
0.00010356
0.00335284
0.000104707
0.00334786
0.000105914
0.00334283
0.000107185
0.00333776
0.000108526
0.00333264
0.000109943
0.00332746
0.000111442
0.00332223
0.000113029
0.00331694
0.000114714
0.00331158
0.000116503
0.00330615
0.000118408
0.00330065
0.000120435
0.00329507
0.0001226
0.00328941
0.000124908
0.00328365
0.000127381
0.0032778
0.000130019
0.00327184
0.000132855
0.00326576
0.000135881
0.00325957
0.000139137
0.00325323
0.000142617
0.00324677
0.000146344
0.00324013
0.000150356
0.00323335
0.000154574
0.00322636
0.000159232
0.00321924
0.000163865
0.00321182
0.000169381
0.00320433
0.000174104
0.00319641
0.000180981
0.00318855
0.000184819
0.00318003
0.000194243
0.000196075
0.00340704
9.15382e-05
0.00340271
9.23052e-05
0.00339834
9.3058e-05
0.00339395
9.38005e-05
0.00338954
9.45367e-05
0.0033851
9.52704e-05
0.00338063
9.60054e-05
0.00337614
9.67455e-05
0.00337163
9.74941e-05
0.00336708
9.8255e-05
0.00336252
9.90316e-05
0.00335792
9.98273e-05
0.0033533
0.000100646
0.00334865
0.00010149
0.00334398
0.000102364
0.00333927
0.000103272
0.00333453
0.000104216
0.00332976
0.0001052
0.00332496
0.000106228
0.00332012
0.000107305
0.00331525
0.000108433
0.00331034
0.000109619
0.00330538
0.000110866
0.00330039
0.00011218
0.00329535
0.000113567
0.00329026
0.000115031
0.00328512
0.000116581
0.00327993
0.000118223
0.00327468
0.000119966
0.00326936
0.000121816
0.00326398
0.000123787
0.00325853
0.000125885
0.00325301
0.000128125
0.0032474
0.000130515
0.00324171
0.000133075
0.00323592
0.000135809
0.00323003
0.000138745
0.00322402
0.000141884
0.00321791
0.000145254
0.00321165
0.00014887
0.00320527
0.000152723
0.00319873
0.000156902
0.00319205
0.000161252
0.00318516
0.000166124
0.00317815
0.000170877
0.00317084
0.000176683
0.00316348
0.000181471
0.00315568
0.000188775
0.00314796
0.000192538
0.00313958
0.000202627
0.000204197
0.00336476
9.58513e-05
0.00336042
9.6645e-05
0.00335606
9.74236e-05
0.00335167
9.81913e-05
0.00334725
9.89522e-05
0.00334281
9.97102e-05
0.00333835
0.000100469
0.00333386
0.000101234
0.00332935
0.000102006
0.00332481
0.000102791
0.00332025
0.000103593
0.00331567
0.000104413
0.00331105
0.000105257
0.00330642
0.000106128
0.00330175
0.000107029
0.00329706
0.000107965
0.00329234
0.000108937
0.00328758
0.000109952
0.0032828
0.000111012
0.00327798
0.000112121
0.00327313
0.000113285
0.00326824
0.000114507
0.00326332
0.000115792
0.00325835
0.000117147
0.00325334
0.000118576
0.00324829
0.000120086
0.00324319
0.000121684
0.00323803
0.000123377
0.00323282
0.000125175
0.00322755
0.000127085
0.00322222
0.000129118
0.00321682
0.000131284
0.00321135
0.000133597
0.0032058
0.000136065
0.00320017
0.000138709
0.00319444
0.000141535
0.00318862
0.000144567
0.00318269
0.000147815
0.00317665
0.000151294
0.00317048
0.000155041
0.00316419
0.000159016
0.00315773
0.000163356
0.00315115
0.000167833
0.00314436
0.000172913
0.00313746
0.000177778
0.00313028
0.000183872
0.00312303
0.000188714
0.00311536
0.000196447
0.00310778
0.000200116
0.00309953
0.000210878
0.000212162
0.00332289
0.000100169
0.00331855
0.000100989
0.00331418
0.000101792
0.00330979
0.000102584
0.00330537
0.000103368
0.00330093
0.00010415
0.00329647
0.000104932
0.00329199
0.000105719
0.00328748
0.000106514
0.00328295
0.000107323
0.00327839
0.000108147
0.00327382
0.000108992
0.00326921
0.00010986
0.00326459
0.000110755
0.00325993
0.000111682
0.00325525
0.000112644
0.00325055
0.000113644
0.00324581
0.000114687
0.00324105
0.000115776
0.00323625
0.000116917
0.00323143
0.000118113
0.00322656
0.000119369
0.00322166
0.000120691
0.00321673
0.000122084
0.00321175
0.000123554
0.00320673
0.000125107
0.00320166
0.000126751
0.00319655
0.000128493
0.00319138
0.000130343
0.00318615
0.000132308
0.00318087
0.000134402
0.00317552
0.000136632
0.00317011
0.000139014
0.00316461
0.000141557
0.00315904
0.000144281
0.00315338
0.000147195
0.00314763
0.000150319
0.00314177
0.000153672
0.00313581
0.000157256
0.00312972
0.00016113
0.00312351
0.00016522
0.00311715
0.000169719
0.00311067
0.000174314
0.00310398
0.0001796
0.00309719
0.000184568
0.00309012
0.000190948
0.003083
0.000195832
0.00307545
0.000203995
0.00306801
0.000207554
0.0030599
0.000218995
0.000219971
0.00328143
0.000104493
0.00327708
0.000105336
0.00327271
0.000106163
0.00326832
0.000106978
0.0032639
0.000107785
0.00325946
0.000108588
0.003255
0.000109392
0.00325052
0.000110201
0.00324602
0.000111018
0.00324149
0.000111848
0.00323694
0.000112695
0.00323237
0.000113561
0.00322778
0.000114452
0.00322316
0.000115371
0.00321852
0.000116322
0.00321386
0.000117308
0.00320917
0.000118334
0.00320445
0.000119404
0.00319971
0.000120521
0.00319493
0.000121691
0.00319013
0.000122918
0.00318529
0.000124207
0.00318042
0.000125563
0.00317551
0.000126992
0.00317056
0.0001285
0.00316558
0.000130093
0.00316055
0.000131781
0.00315547
0.000133569
0.00315034
0.000135469
0.00314517
0.000137487
0.00313993
0.000139638
0.00313463
0.000141929
0.00312927
0.000144377
0.00312384
0.000146992
0.00311832
0.000149791
0.00311273
0.000152791
0.00310705
0.000156002
0.00310126
0.000159456
0.00309538
0.00016314
0.00308937
0.000167137
0.00308325
0.000171337
0.00307698
0.00017599
0.0030706
0.000180698
0.00306401
0.000186186
0.00305733
0.000191248
0.00305037
0.000197911
0.00304338
0.000202825
0.00303595
0.00021142
0.00302865
0.000214852
0.00302067
0.000226978
0.000227624
0.00324037
0.00010882
0.00323602
0.000109687
0.00323165
0.000110537
0.00322725
0.000111373
0.00322283
0.000112202
0.0032184
0.000113026
0.00321394
0.00011385
0.00320946
0.00011468
0.00320496
0.000115517
0.00320044
0.000116368
0.0031959
0.000117235
0.00319134
0.000118123
0.00318675
0.000119035
0.00318215
0.000119976
0.00317752
0.000120949
0.00317287
0.000121959
0.0031682
0.000123009
0.0031635
0.000124103
0.00315877
0.000125247
0.00315402
0.000126444
0.00314924
0.0001277
0.00314443
0.000129019
0.00313958
0.000130407
0.0031347
0.00013187
0.00312979
0.000133414
0.00312484
0.000135046
0.00311984
0.000136774
0.00311481
0.000138606
0.00310972
0.000140552
0.00310459
0.000142621
0.0030994
0.000144825
0.00309416
0.000147175
0.00308885
0.000149685
0.00308347
0.000152369
0.00307802
0.000155241
0.00307249
0.000158321
0.00306688
0.000161616
0.00306117
0.000165167
0.00305536
0.000168947
0.00304944
0.000173062
0.00304341
0.000177367
0.00303723
0.000182169
0.00303094
0.000186984
0.00302446
0.000192669
0.00301789
0.000197818
0.00301104
0.000204762
0.00300417
0.000209695
0.00299687
0.000218721
0.00298971
0.000222012
0.00298186
0.000234826
0.000235123
0.00319971
0.000113153
0.00319536
0.000114042
0.00319098
0.000114912
0.00318658
0.00011577
0.00318217
0.000116618
0.00317773
0.000117462
0.00317328
0.000118306
0.0031688
0.000119155
0.00316431
0.000120012
0.00315979
0.000120881
0.00315526
0.000121768
0.00315071
0.000122675
0.00314613
0.000123608
0.00314154
0.000124569
0.00313693
0.000125563
0.00313229
0.000126594
0.00312763
0.000127667
0.00312295
0.000128785
0.00311825
0.000129953
0.00311352
0.000131175
0.00310876
0.000132458
0.00310397
0.000133805
0.00309916
0.000135223