/*--------------------------------*- C++ -*----------------------------------*\
  =========                 |
  \\      /  F ield         | OpenFOAM: The Open Source CFD Toolbox
   \\    /   O peration     | Website:  https://openfoam.org
    \\  /    A nd           | Version:  7
     \\/     M anipulation  |
\*---------------------------------------------------------------------------*/
FoamFile
{
    version     2.0;
    format      ascii;
    class       volVectorField;
    location    "20";
    object      U;
}
// * * * * * * * * * * * * * * * * * * * * * * * * * * * * * * * * * * * * * //

dimensions      [0 1 -1 0 0 0 0];

internalField   nonuniform List<vector> 
2625
(
(1.2337 0.000199518 0)
(1.23239 0.000198624 0)
(1.23107 0.00019769 0)
(1.22974 0.000196726 0)
(1.22839 0.000195743 0)
(1.22704 0.000194752 0)
(1.22567 0.00019376 0)
(1.22429 0.000192776 0)
(1.2229 0.000191808 0)
(1.22149 0.000190863 0)
(1.22007 0.000189948 0)
(1.21864 0.000189069 0)
(1.2172 0.000188232 0)
(1.21574 0.000187442 0)
(1.21426 0.000186704 0)
(1.21278 0.000186024 0)
(1.21127 0.000185405 0)
(1.20975 0.000184853 0)
(1.20821 0.000184372 0)
(1.20666 0.000183965 0)
(1.20508 0.000183639 0)
(1.20349 0.000183396 0)
(1.20187 0.000183242 0)
(1.20024 0.000183182 0)
(1.19858 0.000183222 0)
(1.19689 0.000183365 0)
(1.19519 0.000183623 0)
(1.19345 0.000183993 0)
(1.19168 0.000184497 0)
(1.18989 0.000185121 0)
(1.18806 0.000185907 0)
(1.1862 0.000186814 0)
(1.1843 0.000187928 0)
(1.18237 0.000189145 0)
(1.18038 0.00019065 0)
(1.17837 0.000192192 0)
(1.17629 0.000194176 0)
(1.17418 0.000196028 0)
(1.17199 0.000198629 0)
(1.16979 0.000200708 0)
(1.16745 0.000204152 0)
(1.16516 0.000206233 0)
(1.16262 0.000210912 0)
(1.16028 0.0002125 0)
(1.15745 0.000219112 0)
(1.15515 0.000219218 0)
(1.15185 0.000228976 0)
(1.14981 0.000225829 0)
(1.14567 0.00024051 0)
(1.1444 0.000231522 0)
(1.13862 0.000248227 0)
(1.23365 0.000596463 0)
(1.23234 0.000593786 0)
(1.23102 0.000590988 0)
(1.22968 0.000588103 0)
(1.22834 0.000585162 0)
(1.22698 0.000582193 0)
(1.22561 0.000579224 0)
(1.22423 0.000576278 0)
(1.22284 0.000573381 0)
(1.22143 0.000570552 0)
(1.22001 0.000567812 0)
(1.21858 0.00056518 0)
(1.21713 0.000562673 0)
(1.21567 0.000560307 0)
(1.2142 0.000558097 0)
(1.21271 0.000556058 0)
(1.2112 0.000554204 0)
(1.20968 0.000552548 0)
(1.20814 0.000551104 0)
(1.20658 0.000549883 0)
(1.20501 0.000548901 0)
(1.20341 0.00054817 0)
(1.2018 0.000547705 0)
(1.20016 0.000547518 0)
(1.1985 0.000547631 0)
(1.19681 0.000548053 0)
(1.1951 0.000548815 0)
(1.19337 0.000549917 0)
(1.1916 0.000551413 0)
(1.1898 0.000553276 0)
(1.18798 0.000555611 0)
(1.18611 0.000558324 0)
(1.18421 0.000561633 0)
(1.18228 0.000565283 0)
(1.1803 0.000569741 0)
(1.17828 0.000574389 0)
(1.1762 0.00058024 0)
(1.17409 0.000585877 0)
(1.1719 0.000593478 0)
(1.1697 0.000599928 0)
(1.16736 0.000609847 0)
(1.16507 0.000616597 0)
(1.16254 0.00062978 0)
(1.1602 0.000635673 0)
(1.15737 0.000653743 0)
(1.15507 0.000656494 0)
(1.15177 0.000682114 0)
(1.14973 0.000677793 0)
(1.14558 0.000714361 0)
(1.14431 0.000698004 0)
(1.13853 0.000737999 0)
(1.23355 0.000989469 0)
(1.23224 0.000985015 0)
(1.23092 0.000980361 0)
(1.22958 0.000975563 0)
(1.22823 0.000970671 0)
(1.22687 0.000965733 0)
(1.2255 0.000960794 0)
(1.22411 0.000955895 0)
(1.22272 0.000951074 0)
(1.22131 0.000946368 0)
(1.21989 0.000941809 0)
(1.21845 0.000937429 0)
(1.217 0.000933255 0)
(1.21554 0.000929315 0)
(1.21406 0.000925634 0)
(1.21257 0.000922236 0)
(1.21106 0.000919145 0)
(1.20954 0.000916381 0)
(1.208 0.000913967 0)
(1.20644 0.000911925 0)
(1.20486 0.000910278 0)
(1.20326 0.000909045 0)
(1.20164 0.000908254 0)
(1.2 0.000907925 0)
(1.19834 0.000908091 0)
(1.19665 0.000908771 0)
(1.19494 0.000910011 0)
(1.1932 0.000911818 0)
(1.19144 0.000914273 0)
(1.18964 0.000917345 0)
(1.18781 0.000921185 0)
(1.18595 0.000925674 0)
(1.18404 0.000931115 0)
(1.18211 0.000937175 0)
(1.18013 0.000944491 0)
(1.17811 0.000952249 0)
(1.17603 0.000961807 0)
(1.17392 0.000971302 0)
(1.17173 0.000983615 0)
(1.16953 0.000994674 0)
(1.16719 0.00101051 0)
(1.1649 0.00102253 0)
(1.16236 0.0010431 0)
(1.16002 0.00105469 0)
(1.1572 0.00108192 0)
(1.1549 0.00109036 0)
(1.1516 0.00112716 0)
(1.14956 0.0011281 0)
(1.14541 0.00117709 0)
(1.14415 0.00116661 0)
(1.13837 0.00121708 0)
(1.23341 0.00137901 0)
(1.2321 0.00137278 0)
(1.23077 0.00136627 0)
(1.22943 0.00135955 0)
(1.22807 0.00135271 0)
(1.22671 0.0013458 0)
(1.22533 0.00133889 0)
(1.22394 0.00133204 0)
(1.22254 0.00132529 0)
(1.22113 0.0013187 0)
(1.2197 0.00131232 0)
(1.21826 0.00130619 0)
(1.21681 0.00130034 0)
(1.21534 0.00129482 0)
(1.21386 0.00128966 0)
(1.21237 0.00128489 0)
(1.21086 0.00128055 0)
(1.20933 0.00127666 0)
(1.20778 0.00127326 0)
(1.20622 0.00127038 0)
(1.20464 0.00126805 0)
(1.20304 0.00126629 0)
(1.20142 0.00126515 0)
(1.19977 0.00126465 0)
(1.19811 0.00126484 0)
(1.19642 0.00126574 0)
(1.19471 0.00126742 0)
(1.19296 0.0012699 0)
(1.19119 0.00127327 0)
(1.1894 0.0012775 0)
(1.18756 0.0012828 0)
(1.1857 0.00128901 0)
(1.1838 0.00129652 0)
(1.18186 0.00130494 0)
(1.17987 0.00131503 0)
(1.17785 0.00132585 0)
(1.17577 0.00133901 0)
(1.17367 0.00135232 0)
(1.17147 0.0013692 0)
(1.16927 0.00138486 0)
(1.16693 0.00140639 0)
(1.16465 0.00142377 0)
(1.16211 0.00145133 0)
(1.15977 0.0014689 0)
(1.15694 0.00150459 0)
(1.15465 0.00151944 0)
(1.15135 0.00156607 0)
(1.14931 0.00157387 0)
(1.14517 0.00163274 0)
(1.14391 0.00163131 0)
(1.13814 0.00168887 0)
(1.23323 0.00176554 0)
(1.23191 0.00175751 0)
(1.23057 0.00174913 0)
(1.22923 0.00174049 0)
(1.22787 0.00173169 0)
(1.2265 0.0017228 0)
(1.22511 0.00171391 0)
(1.22372 0.00170509 0)
(1.22231 0.0016964 0)
(1.22089 0.00168792 0)
(1.21946 0.00167971 0)
(1.21802 0.0016718 0)
(1.21656 0.00166427 0)
(1.21509 0.00165715 0)
(1.2136 0.00165049 0)
(1.2121 0.00164433 0)
(1.21058 0.00163871 0)
(1.20905 0.00163368 0)
(1.2075 0.00162927 0)
(1.20594 0.00162552 0)
(1.20435 0.00162247 0)
(1.20275 0.00162016 0)
(1.20112 0.00161863 0)
(1.19947 0.00161792 0)
(1.19781 0.00161809 0)
(1.19611 0.00161917 0)
(1.19439 0.00162125 0)
(1.19265 0.00162434 0)
(1.19088 0.00162857 0)
(1.18908 0.00163392 0)
(1.18724 0.0016406 0)
(1.18537 0.00164848 0)
(1.18347 0.00165799 0)
(1.18153 0.00166869 0)
(1.17954 0.00168149 0)
(1.17752 0.00169528 0)
(1.17544 0.00171195 0)
(1.17333 0.001729 0)
(1.17114 0.00175032 0)
(1.16894 0.00177052 0)
(1.1666 0.00179757 0)
(1.16431 0.00182026 0)
(1.16178 0.00185458 0)
(1.15944 0.00187817 0)
(1.15661 0.00192195 0)
(1.15432 0.0019434 0)
(1.15102 0.00199925 0)
(1.14899 0.0020144 0)
(1.14485 0.00208221 0)
(1.14359 0.00209067 0)
(1.13783 0.00215411 0)
(1.233 0.00214945 0)
(1.23167 0.00213961 0)
(1.23033 0.00212934 0)
(1.22898 0.00211876 0)
(1.22761 0.00210798 0)
(1.22623 0.00209709 0)
(1.22484 0.0020862 0)
(1.22344 0.00207539 0)
(1.22203 0.00206475 0)
(1.2206 0.00205436 0)
(1.21917 0.00204428 0)
(1.21771 0.00203459 0)
(1.21625 0.00202534 0)
(1.21477 0.0020166 0)
(1.21328 0.00200841 0)
(1.21177 0.00200083 0)
(1.21025 0.00199392 0)
(1.20871 0.0019877 0)
(1.20716 0.00198225 0)
(1.20559 0.00197759 0)
(1.204 0.00197378 0)
(1.20239 0.00197087 0)
(1.20076 0.00196891 0)
(1.1991 0.00196794 0)
(1.19743 0.00196805 0)
(1.19573 0.00196926 0)
(1.19401 0.00197167 0)
(1.19226 0.00197532 0)
(1.19049 0.00198035 0)
(1.18868 0.00198674 0)
(1.18684 0.00199475 0)
(1.18497 0.00200421 0)
(1.18307 0.00201564 0)
(1.18113 0.00202855 0)
(1.17914 0.00204395 0)
(1.17712 0.00206064 0)
(1.17503 0.00208071 0)
(1.17292 0.00210141 0)
(1.17073 0.00212704 0)
(1.16853 0.00215169 0)
(1.16619 0.00218409 0)
(1.1639 0.00221206 0)
(1.16137 0.00225287 0)
(1.15903 0.00228253 0)
(1.15621 0.00233396 0)
(1.15392 0.00236227 0)
(1.15062 0.00242661 0)
(1.1486 0.00244978 0)
(1.14446 0.00252527 0)
(1.1432 0.0025449 0)
(1.13745 0.00261259 0)
(1.23273 0.00253113 0)
(1.23139 0.00251945 0)
(1.23004 0.00250727 0)
(1.22868 0.00249472 0)
(1.22731 0.00248193 0)
(1.22592 0.00246902 0)
(1.22452 0.0024561 0)
(1.22311 0.00244328 0)
(1.22169 0.00243066 0)
(1.22026 0.00241833 0)
(1.21881 0.00240636 0)
(1.21736 0.00239485 0)
(1.21588 0.00238386 0)
(1.2144 0.00237345 0)
(1.2129 0.0023637 0)
(1.21139 0.00235467 0)
(1.20986 0.00234641 0)
(1.20831 0.00233898 0)
(1.20675 0.00233243 0)
(1.20517 0.00232682 0)
(1.20358 0.00232221 0)
(1.20196 0.00231864 0)
(1.20032 0.0023162 0)
(1.19867 0.00231492 0)
(1.19699 0.00231489 0)
(1.19529 0.00231617 0)
(1.19356 0.00231886 0)
(1.19181 0.002323 0)
(1.19003 0.00232875 0)
(1.18822 0.00233611 0)
(1.18638 0.00234535 0)
(1.1845 0.00235633 0)
(1.18259 0.00236958 0)
(1.18065 0.00238461 0)
(1.17866 0.00240251 0)
(1.17663 0.00242201 0)
(1.17455 0.00244535 0)
(1.17244 0.00246961 0)
(1.17024 0.0024994 0)
(1.16804 0.00252843 0)
(1.1657 0.00256597 0)
(1.16342 0.00259919 0)
(1.16089 0.00264619 0)
(1.15855 0.002682 0)
(1.15573 0.00274061 0)
(1.15344 0.00277609 0)
(1.15015 0.00284808 0)
(1.14813 0.00288004 0)
(1.14399 0.0029618 0)
(1.14274 0.00299407 0)
(1.137 0.00306417 0)
(1.23242 0.00291092 0)
(1.23107 0.00289738 0)
(1.22971 0.00288325 0)
(1.22834 0.00286869 0)
(1.22695 0.00285386 0)
(1.22556 0.0028389 0)
(1.22415 0.00282392 0)
(1.22274 0.00280906 0)
(1.22131 0.00279442 0)
(1.21986 0.00278011 0)
(1.21841 0.00276622 0)
(1.21694 0.00275284 0)
(1.21546 0.00274007 0)
(1.21397 0.00272797 0)
(1.21246 0.00271661 0)
(1.21094 0.00270608 0)
(1.2094 0.00269642 0)
(1.20785 0.00268772 0)
(1.20628 0.00268003 0)
(1.2047 0.00267342 0)
(1.20309 0.00266794 0)
(1.20147 0.00266367 0)
(1.19983 0.00266068 0)
(1.19816 0.00265903 0)
(1.19648 0.0026588 0)
(1.19477 0.00266008 0)
(1.19304 0.00266297 0)
(1.19128 0.00266752 0)
(1.1895 0.00267392 0)
(1.18768 0.00268215 0)
(1.18584 0.00269255 0)
(1.18396 0.00270494 0)
(1.18205 0.00271993 0)
(1.1801 0.00273697 0)
(1.17811 0.00275727 0)
(1.17608 0.00277946 0)
(1.174 0.00280595 0)
(1.17189 0.00283367 0)
(1.16969 0.00286746 0)
(1.16749 0.00290079 0)
(1.16515 0.00294326 0)
(1.16286 0.00298168 0)
(1.16033 0.00303458 0)
(1.158 0.00307659 0)
(1.15518 0.0031419 0)
(1.1529 0.00318482 0)
(1.14961 0.00326367 0)
(1.14759 0.00330511 0)
(1.14346 0.00339181 0)
(1.14221 0.00343807 0)
(1.13649 0.00350884 0)
(1.23206 0.00328916 0)
(1.2307 0.0032737 0)
(1.22933 0.00325758 0)
(1.22795 0.00324098 0)
(1.22656 0.00322407 0)
(1.22515 0.00320701 0)
(1.22374 0.00318994 0)
(1.22231 0.00317299 0)
(1.22087 0.00315629 0)
(1.21942 0.00313996 0)
(1.21795 0.0031241 0)
(1.21648 0.00310882 0)
(1.21499 0.00309422 0)
(1.21348 0.00308037 0)
(1.21197 0.00306736 0)
(1.21044 0.00305527 0)
(1.20889 0.00304417 0)
(1.20733 0.00303415 0)
(1.20575 0.00302526 0)
(1.20416 0.00301757 0)
(1.20255 0.00301118 0)
(1.20092 0.00300613 0)
(1.19927 0.00300252 0)
(1.1976 0.00300042 0)
(1.19591 0.00299993 0)
(1.19419 0.00300112 0)
(1.19246 0.00300413 0)
(1.19069 0.00300901 0)
(1.1889 0.00301597 0)
(1.18708 0.003025 0)
(1.18523 0.00303645 0)
(1.18335 0.00305016 0)
(1.18143 0.00306676 0)
(1.17948 0.00308573 0)
(1.17749 0.00310829 0)
(1.17546 0.00313308 0)
(1.17337 0.00316258 0)
(1.17126 0.00319365 0)
(1.16906 0.00323127 0)
(1.16686 0.0032688 0)
(1.16452 0.00331599 0)
(1.16224 0.00335955 0)
(1.15971 0.00341804 0)
(1.15738 0.0034663 0)
(1.15457 0.00353784 0)
(1.15229 0.00358845 0)
(1.149 0.00367339 0)
(1.14699 0.00372495 0)
(1.14287 0.00381532 0)
(1.14162 0.00387679 0)
(1.13591 0.00394658 0)
(1.23166 0.00366611 0)
(1.23029 0.0036487 0)
(1.22891 0.00363055 0)
(1.22752 0.00361186 0)
(1.22611 0.00359283 0)
(1.2247 0.00357362 0)
(1.22327 0.0035544 0)
(1.22183 0.00353532 0)
(1.22038 0.00351651 0)
(1.21892 0.00349811 0)
(1.21744 0.00348024 0)
(1.21596 0.00346301 0)
(1.21446 0.00344652 0)
(1.21294 0.00343087 0)
(1.21142 0.00341615 0)
(1.20988 0.00340245 0)
(1.20832 0.00338985 0)
(1.20675 0.00337843 0)
(1.20516 0.00336828 0)
(1.20356 0.00335946 0)
(1.20194 0.00335207 0)
(1.2003 0.00334618 0)
(1.19865 0.00334188 0)
(1.19697 0.00333925 0)
(1.19527 0.00333841 0)
(1.19355 0.00333944 0)
(1.19181 0.00334247 0)
(1.19004 0.00334759 0)
(1.18824 0.00335501 0)
(1.18642 0.00336474 0)
(1.18456 0.00337714 0)
(1.18268 0.00339206 0)
(1.18076 0.00341018 0)
(1.1788 0.00343095 0)
(1.1768 0.00345566 0)
(1.17477 0.00348292 0)
(1.17268 0.00351528 0)
(1.17057 0.00354959 0)
(1.16837 0.00359087 0)
(1.16617 0.00363249 0)
(1.16383 0.00368419 0)
(1.16155 0.00373283 0)
(1.15902 0.00379661 0)
(1.1567 0.00385113 0)
(1.15388 0.00392845 0)
(1.15161 0.00398695 0)
(1.14833 0.00407724 0)
(1.14632 0.0041395 0)
(1.14221 0.00423233 0)
(1.14096 0.00431014 0)
(1.13527 0.00437739 0)
(1.23123 0.00404206 0)
(1.22984 0.00402263 0)
(1.22845 0.0040024 0)
(1.22704 0.00398157 0)
(1.22563 0.00396036 0)
(1.2242 0.00393896 0)
(1.22276 0.00391754 0)
(1.22131 0.00389628 0)
(1.21984 0.00387531 0)
(1.21837 0.00385479 0)
(1.21688 0.00383485 0)
(1.21538 0.0038156 0)
(1.21387 0.00379717 0)
(1.21235 0.00377966 0)
(1.21081 0.00376317 0)
(1.20926 0.00374779 0)
(1.2077 0.00373362 0)
(1.20612 0.00372075 0)
(1.20452 0.00370926 0)
(1.20291 0.00369924 0)
(1.20128 0.00369078 0)
(1.19963 0.00368396 0)
(1.19797 0.00367889 0)
(1.19628 0.00367565 0)
(1.19458 0.00367437 0)
(1.19285 0.00367514 0)
(1.1911 0.00367812 0)
(1.18932 0.00368338 0)
(1.18752 0.00369116 0)
(1.18569 0.00370147 0)
(1.18383 0.00371472 0)
(1.18194 0.00373075 0)
(1.18001 0.00375025 0)
(1.17806 0.00377271 0)
(1.17605 0.00379943 0)
(1.17402 0.00382904 0)
(1.17193 0.00386412 0)
(1.16981 0.00390154 0)
(1.16762 0.00394631 0)
(1.16541 0.0039919 0)
(1.16308 0.00404788 0)
(1.1608 0.00410152 0)
(1.15827 0.00417029 0)
(1.15595 0.00423107 0)
(1.15314 0.00431373 0)
(1.15087 0.00438032 0)
(1.14759 0.00447523 0)
(1.14559 0.00454873 0)
(1.14149 0.00464287 0)
(1.14025 0.00473804 0)
(1.13457 0.00480126 0)
(1.23075 0.00441724 0)
(1.22935 0.00439574 0)
(1.22794 0.00437336 0)
(1.22652 0.00435034 0)
(1.22509 0.0043269 0)
(1.22365 0.00430324 0)
(1.2222 0.00427957 0)
(1.22073 0.00425606 0)
(1.21926 0.00423288 0)
(1.21777 0.00421018 0)
(1.21627 0.0041881 0)
(1.21476 0.00416678 0)
(1.21324 0.00414635 0)
(1.2117 0.00412691 0)
(1.21015 0.00410858 0)
(1.20859 0.00409146 0)
(1.20702 0.00407565 0)
(1.20543 0.00406125 0)
(1.20382 0.00404835 0)
(1.2022 0.00403704 0)
(1.20056 0.00402743 0)
(1.1989 0.0040196 0)
(1.19723 0.00401367 0)
(1.19553 0.00400974 0)
(1.19382 0.00400793 0)
(1.19208 0.00400834 0)
(1.19033 0.00401116 0)
(1.18854 0.00401645 0)
(1.18673 0.00402449 0)
(1.1849 0.00403529 0)
(1.18303 0.00404926 0)
(1.18114 0.00406627 0)
(1.17921 0.00408705 0)
(1.17725 0.00411106 0)
(1.17524 0.00413967 0)
(1.17321 0.0041715 0)
(1.17111 0.00420914 0)
(1.169 0.00424954 0)
(1.1668 0.00429761 0)
(1.1646 0.00434706 0)
(1.16226 0.00440711 0)
(1.15998 0.00446564 0)
(1.15746 0.00453911 0)
(1.15514 0.00460615 0)
(1.15234 0.00469369 0)
(1.15007 0.00476853 0)
(1.1468 0.00486737 0)
(1.14481 0.00495259 0)
(1.14071 0.00504694 0)
(1.13948 0.00516044 0)
(1.13382 0.00521818 0)
(1.23023 0.00479187 0)
(1.22881 0.00476823 0)
(1.22739 0.00474364 0)
(1.22596 0.00471836 0)
(1.22451 0.00469262 0)
(1.22306 0.00466666 0)
(1.22159 0.00464067 0)
(1.22011 0.00461485 0)
(1.21862 0.00458939 0)
(1.21712 0.00456444 0)
(1.21561 0.00454017 0)
(1.21409 0.00451671 0)
(1.21255 0.0044942 0)
(1.21101 0.00447277 0)
(1.20945 0.00445252 0)
(1.20787 0.00443359 0)
(1.20628 0.00441606 0)
(1.20468 0.00440005 0)
(1.20306 0.00438566 0)
(1.20143 0.00437299 0)
(1.19978 0.00436214 0)
(1.19812 0.00435321 0)
(1.19643 0.00434634 0)
(1.19473 0.00434161 0)
(1.19301 0.00433917 0)
(1.19126 0.00433913 0)
(1.1895 0.00434168 0)
(1.18771 0.00434691 0)
(1.18589 0.00435509 0)
(1.18405 0.00436626 0)
(1.18218 0.00438084 0)
(1.18028 0.00439872 0)
(1.17834 0.00442063 0)
(1.17638 0.00444607 0)
(1.17437 0.00447641 0)
(1.17233 0.00451033 0)
(1.17024 0.00455038 0)
(1.16812 0.00459362 0)
(1.16592 0.00464482 0)
(1.16372 0.004698 0)
(1.16138 0.00476188 0)
(1.15911 0.00482522 0)
(1.15659 0.00490308 0)
(1.15427 0.00497635 0)
(1.15147 0.00506835 0)
(1.14921 0.00515157 0)
(1.14595 0.00525366 0)
(1.14396 0.00535106 0)
(1.13988 0.00544455 0)
(1.13865 0.00557726 0)
(1.13301 0.00562815 0)
(1.22966 0.00516612 0)
(1.22824 0.00514028 0)
(1.2268 0.00511341 0)
(1.22535 0.00508581 0)
(1.22389 0.00505771 0)
(1.22242 0.00502936 0)
(1.22094 0.00500099 0)
(1.21945 0.00497281 0)
(1.21794 0.00494499 0)
(1.21643 0.00491773 0)
(1.2149 0.00489119 0)
(1.21337 0.00486552 0)
(1.21182 0.00484087 0)
(1.21026 0.00481736 0)
(1.20868 0.00479513 0)
(1.2071 0.0047743 0)
(1.2055 0.00475498 0)
(1.20388 0.00473728 0)
(1.20226 0.00472131 0)
(1.20061 0.00470718 0)
(1.19895 0.00469501 0)
(1.19728 0.00468489 0)
(1.19558 0.00467697 0)
(1.19387 0.00467135 0)
(1.19214 0.00466818 0)
(1.19038 0.00466759 0)
(1.18861 0.00466976 0)
(1.18681 0.00467481 0)
(1.18499 0.00468302 0)
(1.18314 0.00469444 0)
(1.18126 0.00470951 0)
(1.17936 0.00472812 0)
(1.17742 0.00475104 0)
(1.17545 0.00477779 0)
(1.17344 0.00480971 0)
(1.1714 0.00484558 0)
(1.1693 0.00488787 0)
(1.16718 0.00493381 0)
(1.16498 0.00498795 0)
(1.16278 0.00504472 0)
(1.16045 0.00511221 0)
(1.15818 0.00518026 0)
(1.15566 0.00526222 0)
(1.15335 0.00534169 0)
(1.15055 0.00543772 0)
(1.1483 0.00552944 0)
(1.14504 0.00563412 0)
(1.14306 0.00574411 0)
(1.13899 0.00583572 0)
(1.13776 0.00598847 0)
(1.13216 0.00603118 0)
(1.22906 0.00554018 0)
(1.22762 0.00551205 0)
(1.22616 0.00548284 0)
(1.2247 0.00545284 0)
(1.22322 0.00542231 0)
(1.22174 0.00539151 0)
(1.22024 0.00536069 0)
(1.21873 0.00533006 0)
(1.21722 0.00529983 0)
(1.21569 0.00527018 0)
(1.21415 0.00524129 0)
(1.2126 0.00521334 0)
(1.21103 0.00518646 0)
(1.20946 0.00516081 0)
(1.20787 0.00513651 0)
(1.20627 0.0051137 0)
(1.20466 0.0050925 0)
(1.20303 0.00507302 0)
(1.20139 0.00505539 0)
(1.19974 0.00503972 0)
(1.19807 0.00502612 0)
(1.19638 0.00501472 0)
(1.19468 0.00500566 0)
(1.19295 0.00499904 0)
(1.19121 0.00499504 0)
(1.18945 0.00499378 0)
(1.18767 0.00499547 0)
(1.18586 0.00500023 0)
(1.18403 0.00500835 0)
(1.18218 0.00501989 0)
(1.18029 0.00503531 0)
(1.17838 0.00505454 0)
(1.17644 0.00507832 0)
(1.17447 0.00510624 0)
(1.17245 0.00513961 0)
(1.17041 0.00517728 0)
(1.16831 0.00522165 0)
(1.16619 0.00527014 0)
(1.16399 0.00532703 0)
(1.16179 0.00538726 0)
(1.15946 0.00545813 0)
(1.15719 0.00553077 0)
(1.15467 0.00561653 0)
(1.15237 0.00570216 0)
(1.14958 0.00580179 0)
(1.14733 0.00590213 0)
(1.14408 0.00600876 0)
(1.14211 0.0061317 0)
(1.13805 0.00622046 0)
(1.13683 0.006394 0)
(1.13125 0.00642728 0)
(1.22842 0.00591417 0)
(1.22696 0.00588369 0)
(1.22549 0.00585206 0)
(1.22401 0.00581958 0)
(1.22251 0.00578654 0)
(1.22101 0.00575323 0)
(1.2195 0.00571987 0)
(1.21798 0.00568673 0)
(1.21644 0.005654 0)
(1.2149 0.00562189 0)
(1.21334 0.00559058 0)
(1.21178 0.00556026 0)
(1.2102 0.00553109 0)
(1.20861 0.0055032 0)
(1.20701 0.00547676 0)
(1.2054 0.00545188 0)
(1.20377 0.00542871 0)
(1.20213 0.00540737 0)
(1.20048 0.00538798 0)
(1.19881 0.00537067 0)
(1.19713 0.00535555 0)
(1.19543 0.00534277 0)
(1.19372 0.00533246 0)
(1.19199 0.00532474 0)
(1.19023 0.0053198 0)
(1.18846 0.00531777 0)
(1.18667 0.00531886 0)
(1.18486 0.0053232 0)
(1.18302 0.00533111 0)
(1.18116 0.00534265 0)
(1.17927 0.00535831 0)
(1.17735 0.00537801 0)
(1.1754 0.00540252 0)
(1.17343 0.00543146 0)
(1.17141 0.00546612 0)
(1.16936 0.00550546 0)
(1.16726 0.00555174 0)
(1.16514 0.00560264 0)
(1.16294 0.00566209 0)
(1.16074 0.00572563 0)
(1.15841 0.00579966 0)
(1.15615 0.00587676 0)
(1.15363 0.00596603 0)
(1.15133 0.00605776 0)
(1.14855 0.00616059 0)
(1.14631 0.00626962 0)
(1.14307 0.00637759 0)
(1.14111 0.00651382 0)
(1.13706 0.00659879 0)
(1.13585 0.00679382 0)
(1.13029 0.00681645 0)
(1.22773 0.00628824 0)
(1.22625 0.00625532 0)
(1.22477 0.00622118 0)
(1.22327 0.00618615 0)
(1.22176 0.00615053 0)
(1.22024 0.00611461 0)
(1.21871 0.00607865 0)
(1.21717 0.00604291 0)
(1.21562 0.0060076 0)
(1.21406 0.00597295 0)
(1.21249 0.00593915 0)
(1.21091 0.00590638 0)
(1.20932 0.00587482 0)
(1.20772 0.00584462 0)
(1.2061 0.00581594 0)
(1.20447 0.00578892 0)
(1.20284 0.00576369 0)
(1.20118 0.00574039 0)
(1.19952 0.00571915 0)
(1.19784 0.00570009 0)
(1.19614 0.00568337 0)
(1.19443 0.0056691 0)
(1.19271 0.00565743 0)
(1.19097 0.00564851 0)
(1.1892 0.00564252 0)
(1.18742 0.00563959 0)
(1.18562 0.00563996 0)
(1.1838 0.00564378 0)
(1.18196 0.00565135 0)
(1.18009 0.00566277 0)
(1.17819 0.00567852 0)
(1.17627 0.00569856 0)
(1.17432 0.00572366 0)
(1.17234 0.00575348 0)
(1.17031 0.00578928 0)
(1.16827 0.00583013 0)
(1.16616 0.00587815 0)
(1.16404 0.00593131 0)
(1.16184 0.00599312 0)
(1.15965 0.00605983 0)
(1.15732 0.00613679 0)
(1.15505 0.00621824 0)
(1.15255 0.00631073 0)
(1.15025 0.00640849 0)
(1.14747 0.00651412 0)
(1.14524 0.0066319 0)
(1.14201 0.00674061 0)
(1.14006 0.00689045 0)
(1.13603 0.00697073 0)
(1.13481 0.00718789 0)
(1.12929 0.0071987 0)
(1.227 0.00666247 0)
(1.22551 0.00662703 0)
(1.224 0.00659031 0)
(1.22249 0.00655264 0)
(1.22096 0.00651435 0)
(1.21942 0.00647575 0)
(1.21788 0.00643711 0)
(1.21632 0.00639868 0)
(1.21476 0.00636072 0)
(1.21318 0.00632345 0)
(1.21159 0.00628707 0)
(1.21 0.00625177 0)
(1.20839 0.00621774 0)
(1.20677 0.00618514 0)
(1.20514 0.00615413 0)
(1.2035 0.00612486 0)
(1.20185 0.00609748 0)
(1.20018 0.00607213 0)
(1.19851 0.00604894 0)
(1.19681 0.00602805 0)
(1.19511 0.00600961 0)
(1.19339 0.00599374 0)
(1.19165 0.00598062 0)
(1.18989 0.00597038 0)
(1.18812 0.00596322 0)
(1.18633 0.00595929 0)
(1.18452 0.00595883 0)
(1.18269 0.00596199 0)
(1.18084 0.00596909 0)
(1.17896 0.00598026 0)
(1.17706 0.00599597 0)
(1.17514 0.00601622 0)
(1.17318 0.00604176 0)
(1.17119 0.00607232 0)
(1.16917 0.0061091 0)
(1.16712 0.00615131 0)
(1.16501 0.00620091 0)
(1.16289 0.00625617 0)
(1.16069 0.00632016 0)
(1.1585 0.00638989 0)
(1.15617 0.00646954 0)
(1.15391 0.00655522 0)
(1.15141 0.00665063 0)
(1.14912 0.00675436 0)
(1.14635 0.00686239 0)
(1.14412 0.00698898 0)
(1.14091 0.00709785 0)
(1.13896 0.00726156 0)
(1.13495 0.00733629 0)
(1.13374 0.00757618 0)
(1.12824 0.00757406 0)
(1.22624 0.00703696 0)
(1.22472 0.00699892 0)
(1.2232 0.00695952 0)
(1.22166 0.00691913 0)
(1.22012 0.00687809 0)
(1.21857 0.00683672 0)
(1.217 0.0067953 0)
(1.21543 0.00675412 0)
(1.21385 0.00671342 0)
(1.21225 0.00667343 0)
(1.21065 0.00663438 0)
(1.20904 0.00659647 0)
(1.20742 0.00655988 0)
(1.20578 0.00652479 0)
(1.20414 0.00649137 0)
(1.20248 0.00645977 0)
(1.20081 0.00643014 0)
(1.19914 0.00640264 0)
(1.19744 0.0063774 0)
(1.19574 0.00635457 0)
(1.19402 0.0063343 0)
(1.19229 0.00631674 0)
(1.19054 0.00630205 0)
(1.18877 0.00629039 0)
(1.18699 0.00628195 0)
(1.18519 0.00627689 0)
(1.18337 0.00627547 0)
(1.18154 0.00627785 0)
(1.17967 0.00628436 0)
(1.17779 0.00629515 0)
(1.17588 0.00631068 0)
(1.17395 0.00633101 0)
(1.17199 0.00635684 0)
(1.17 0.006388 0)
(1.16797 0.00642561 0)
(1.16592 0.00646903 0)
(1.16381 0.00652002 0)
(1.16169 0.00657723 0)
(1.15949 0.00664321 0)
(1.1573 0.0067158 0)
(1.15498 0.00679793 0)
(1.15272 0.00688769 0)
(1.15022 0.00698575 0)
(1.14794 0.00709537 0)
(1.14518 0.00720541 0)
(1.14296 0.00734084 0)
(1.13976 0.00744931 0)
(1.13781 0.00762715 0)
(1.13382 0.0076955 0)
(1.13262 0.00795866 0)
(1.12715 0.00794253 0)
(1.22543 0.00741178 0)
(1.22389 0.00737103 0)
(1.22235 0.00732887 0)
(1.2208 0.00728567 0)
(1.21923 0.00724179 0)
(1.21766 0.00719757 0)
(1.21608 0.0071533 0)
(1.21449 0.00710927 0)
(1.21289 0.00706574 0)
(1.21128 0.00702296 0)
(1.20966 0.00698115 0)
(1.20803 0.00694053 0)
(1.20639 0.00690129 0)
(1.20474 0.00686362 0)
(1.20308 0.00682769 0)
(1.20141 0.00679366 0)
(1.19973 0.00676169 0)
(1.19804 0.00673194 0)
(1.19633 0.00670455 0)
(1.19462 0.00667969 0)
(1.19289 0.00665749 0)
(1.19114 0.00663812 0)
(1.18938 0.00662175 0)
(1.1876 0.00660855 0)
(1.18581 0.00659871 0)
(1.184 0.00659241 0)
(1.18218 0.00658991 0)
(1.18033 0.00659139 0)
(1.17846 0.00659718 0)
(1.17657 0.00660745 0)
(1.17466 0.00662267 0)
(1.17272 0.00664293 0)
(1.17075 0.00666891 0)
(1.16876 0.00670052 0)
(1.16673 0.00673879 0)
(1.16467 0.00678328 0)
(1.16257 0.0068355 0)
(1.16044 0.0068945 0)
(1.15825 0.00696227 0)
(1.15606 0.00703757 0)
(1.15373 0.00712195 0)
(1.15148 0.00721567 0)
(1.14899 0.0073161 0)
(1.14671 0.00743151 0)
(1.14396 0.0075432 0)
(1.14175 0.00768748 0)
(1.13856 0.00779502 0)
(1.13663 0.00798719 0)
(1.13265 0.00804839 0)
(1.13146 0.00833531 0)
(1.12602 0.00830415 0)
(1.22457 0.00778697 0)
(1.22302 0.00774342 0)
(1.22146 0.0076984 0)
(1.21989 0.00765231 0)
(1.21831 0.0076055 0)
(1.21671 0.00755834 0)
(1.21512 0.00751112 0)
(1.21351 0.00746415 0)
(1.21189 0.00741771 0)
(1.21026 0.00737205 0)
(1.20863 0.0073274 0)
(1.20698 0.00728398 0)
(1.20533 0.007242 0)
(1.20366 0.00720166 0)
(1.20199 0.00716312 0)
(1.2003 0.00712656 0)
(1.1986 0.00709216 0)
(1.1969 0.00706005 0)
(1.19518 0.00703042 0)
(1.19345 0.00700341 0)
(1.1917 0.00697918 0)
(1.18995 0.00695789 0)
(1.18817 0.00693974 0)
(1.18639 0.00692487 0)
(1.18459 0.00691352 0)
(1.18277 0.00690586 0)
(1.18093 0.00690216 0)
(1.17907 0.00690261 0)
(1.1772 0.00690755 0)
(1.1753 0.00691717 0)
(1.17338 0.00693195 0)
(1.17144 0.00695199 0)
(1.16947 0.00697798 0)
(1.16747 0.00700989 0)
(1.16544 0.00704868 0)
(1.16338 0.00709406 0)
(1.16127 0.00714734 0)
(1.15915 0.00720798 0)
(1.15695 0.00727735 0)
(1.15477 0.00735521 0)
(1.15245 0.00744162 0)
(1.1502 0.00753915 0)
(1.14772 0.00764167 0)
(1.14545 0.00776279 0)
(1.1427 0.00787575 0)
(1.1405 0.0080289 0)
(1.13732 0.00813498 0)
(1.1354 0.00834168 0)
(1.13145 0.00839497 0)
(1.13025 0.00870612 0)
(1.12485 0.00865894 0)
(1.22368 0.00816257 0)
(1.22211 0.00811613 0)
(1.22053 0.00806816 0)
(1.21893 0.00801907 0)
(1.21733 0.00796925 0)
(1.21572 0.00791905 0)
(1.21411 0.0078688 0)
(1.21248 0.00781881 0)
(1.21084 0.00776936 0)
(1.2092 0.00772072 0)
(1.20755 0.00767314 0)
(1.20588 0.00762683 0)
(1.20421 0.00758202 0)
(1.20253 0.0075389 0)
(1.20084 0.00749767 0)
(1.19914 0.00745849 0)
(1.19743 0.00742154 0)
(1.19571 0.00738699 0)
(1.19398 0.007355 0)
(1.19223 0.00732574 0)
(1.19047 0.00729937 0)
(1.18871 0.00727606 0)
(1.18692 0.007256 0)
(1.18512 0.00723937 0)
(1.18331 0.00722638 0)
(1.18148 0.00721724 0)
(1.17964 0.00721221 0)
(1.17777 0.00721151 0)
(1.17589 0.00721547 0)
(1.17399 0.00722431 0)
(1.17206 0.0072385 0)
(1.17011 0.0072582 0)
(1.16814 0.00728404 0)
(1.16614 0.00731611 0)
(1.1641 0.00735525 0)
(1.16204 0.00740139 0)
(1.15994 0.00745556 0)
(1.15781 0.00751768 0)
(1.15562 0.00758845 0)
(1.15343 0.00766872 0)
(1.15112 0.00775693 0)
(1.14888 0.00785814 0)
(1.1464 0.00796248 0)
(1.14414 0.0080892 0)
(1.1414 0.00820309 0)
(1.13921 0.00836509 0)
(1.13605 0.00846922 0)
(1.13413 0.00869061 0)
(1.1302 0.00873527 0)
(1.12901 0.00907105 0)
(1.12365 0.00900692 0)
(1.22274 0.0085386 0)
(1.22115 0.00848917 0)
(1.21955 0.00843815 0)
(1.21794 0.00838598 0)
(1.21632 0.00833304 0)
(1.21469 0.00827972 0)
(1.21305 0.00822634 0)
(1.21141 0.00817323 0)
(1.20976 0.00812069 0)
(1.20809 0.00806899 0)
(1.20642 0.00801837 0)
(1.20474 0.00796909 0)
(1.20306 0.00792135 0)
(1.20136 0.00787537 0)
(1.19965 0.00783134 0)
(1.19794 0.00778944 0)
(1.19621 0.00774985 0)
(1.19448 0.00771275 0)
(1.19273 0.0076783 0)
(1.19097 0.00764668 0)
(1.1892 0.00761806 0)
(1.18742 0.00759262 0)
(1.18563 0.00757055 0)
(1.18382 0.00755203 0)
(1.18199 0.00753729 0)
(1.18016 0.00752655 0)
(1.1783 0.00752007 0)
(1.17643 0.00751808 0)
(1.17454 0.00752094 0)
(1.17263 0.00752887 0)
(1.1707 0.00754233 0)
(1.16874 0.00756154 0)
(1.16676 0.0075871 0)
(1.16476 0.00761917 0)
(1.16272 0.00765851 0)
(1.16066 0.00770525 0)
(1.15856 0.00776014 0)
(1.15644 0.00782358 0)
(1.15424 0.00789557 0)
(1.15206 0.00797809 0)
(1.14975 0.00806789 0)
(1.14751 0.00817263 0)
(1.14504 0.00827853 0)
(1.14279 0.00841075 0)
(1.14006 0.00852522 0)
(1.13788 0.00869605 0)
(1.13473 0.00879775 0)
(1.13283 0.00903397 0)
(1.12892 0.00906932 0)
(1.12773 0.00943011 0)
(1.12241 0.00934813 0)
(1.22177 0.00891506 0)
(1.22015 0.00886254 0)
(1.21853 0.00880838 0)
(1.2169 0.00875302 0)
(1.21526 0.00869688 0)
(1.21361 0.00864034 0)
(1.21196 0.00858374 0)
(1.2103 0.00852743 0)
(1.20862 0.0084717 0)
(1.20694 0.00841683 0)
(1.20526 0.0083631 0)
(1.20356 0.00831074 0)
(1.20185 0.00825998 0)
(1.20014 0.00821104 0)
(1.19842 0.00816411 0)
(1.19669 0.0081194 0)
(1.19495 0.00807707 0)
(1.1932 0.00803732 0)
(1.19144 0.00800031 0)
(1.18967 0.00796623 0)
(1.18788 0.00793525 0)
(1.18609 0.00790756 0)
(1.18428 0.00788336 0)
(1.18247 0.00786284 0)
(1.18063 0.00784624 0)
(1.17878 0.00783377 0)
(1.17692 0.00782572 0)
(1.17504 0.00782233 0)
(1.17314 0.00782394 0)
(1.17123 0.00783082 0)
(1.16929 0.00784343 0)
(1.16733 0.00786201 0)
(1.16535 0.00788714 0)
(1.16334 0.00791908 0)
(1.1613 0.00795846 0)
(1.15924 0.00800565 0)
(1.15713 0.00806108 0)
(1.15501 0.00812569 0)
(1.15282 0.00819872 0)
(1.15064 0.00828333 0)
(1.14834 0.0083745 0)
(1.14611 0.00848262 0)
(1.14365 0.00858983 0)
(1.1414 0.00872744 0)
(1.13869 0.00884215 0)
(1.13651 0.00902178 0)
(1.13338 0.00912058 0)
(1.13149 0.00937175 0)
(1.1276 0.00939714 0)
(1.12642 0.00978329 0)
(1.12113 0.0096826 0)
(1.22075 0.00929195 0)
(1.21911 0.00923623 0)
(1.21747 0.00917883 0)
(1.21582 0.0091202 0)
(1.21416 0.00906076 0)
(1.2125 0.0090009 0)
(1.21082 0.00894099 0)
(1.20914 0.00888138 0)
(1.20745 0.00882236 0)
(1.20575 0.00876425 0)
(1.20404 0.0087073 0)
(1.20233 0.00865177 0)
(1.20061 0.0085979 0)
(1.19888 0.0085459 0)
(1.19714 0.00849598 0)
(1.1954 0.00844835 0)
(1.19364 0.00840318 0)
(1.19188 0.00836067 0)
(1.1901 0.008321 0)
(1.18832 0.00828435 0)
(1.18652 0.00825091 0)
(1.18472 0.00822086 0)
(1.1829 0.00819442 0)
(1.18107 0.00817179 0)
(1.17923 0.0081532 0)
(1.17737 0.00813889 0)
(1.1755 0.00812915 0)
(1.17361 0.00812422 0)
(1.17171 0.00812447 0)
(1.16978 0.00813017 0)
(1.16784 0.00814178 0)
(1.16588 0.0081596 0)
(1.16389 0.00818415 0)
(1.16188 0.00821581 0)
(1.15984 0.00825508 0)
(1.15778 0.00830257 0)
(1.15567 0.00835839 0)
(1.15356 0.008424 0)
(1.15137 0.00849788 0)
(1.14919 0.00858442 0)
(1.14689 0.00867676 0)
(1.14467 0.00878812 0)
(1.14221 0.00889638 0)
(1.13997 0.00903926 0)
(1.13727 0.0091539 0)
(1.13511 0.00934228 0)
(1.132 0.00943775 0)
(1.13011 0.00970396 0)
(1.12625 0.00971878 0)
(1.12508 0.0101306 0)
(1.11983 0.0100104 0)
(1.21969 0.00966924 0)
(1.21803 0.00961024 0)
(1.21637 0.00954949 0)
(1.2147 0.00948748 0)
(1.21302 0.00942464 0)