# Probe 0 (2 -0.5 0)
# Probe 1 (2 0.5 0)
#       Probe             0             1
#        Time
        0.001      -50.7677      -50.7677
        0.002       1.51597       1.51597
        0.003     0.0720729     0.0720728
        0.004     0.0319677     0.0319677
        0.005     0.0220992     0.0220991
        0.006      0.018725     0.0187251
        0.007     0.0175965     0.0175965
        0.008     0.0173264     0.0173264
        0.009     0.0173814     0.0173814
         0.01     0.0175393     0.0175393
        0.011      0.017703      0.017703
        0.012     0.0178262     0.0178262
        0.013     0.0178948     0.0178948
        0.014     0.0179094     0.0179095
        0.015     0.0178925     0.0178925
        0.016     0.0178289     0.0178289
        0.017     0.0177389     0.0177389
        0.018     0.0176263     0.0176263
        0.019     0.0174957     0.0174957
         0.02     0.0173549     0.0173549
        0.021     0.0172075     0.0172075
        0.022     0.0170541     0.0170541
        0.023     0.0168995     0.0168995
        0.024     0.0167459     0.0167459
        0.025     0.0165944     0.0165944
        0.026     0.0164477     0.0164477
        0.027     0.0163054     0.0163054
        0.028     0.0161684     0.0161684
        0.029     0.0160369     0.0160369
         0.03     0.0159109     0.0159109
        0.031     0.0157909     0.0157909
        0.032     0.0156764     0.0156764
        0.033     0.0155681     0.0155681
        0.034     0.0154652     0.0154652
        0.035     0.0153684     0.0153684
        0.036      0.015277      0.015277
        0.037      0.015191      0.015191
        0.038     0.0151103     0.0151103
        0.039     0.0150341     0.0150341
         0.04     0.0149634     0.0149634
        0.041      0.014897      0.014897
        0.042     0.0148351     0.0148351
        0.043     0.0147771     0.0147771
        0.044     0.0147232     0.0147232
        0.045     0.0146747     0.0146747
        0.046     0.0146277     0.0146277
        0.047     0.0145849     0.0145849
        0.048     0.0145458     0.0145458
        0.049       0.01451       0.01451
         0.05     0.0144762     0.0144762
        0.051      0.014446      0.014446
        0.052      0.014418      0.014418
        0.053      0.014393      0.014393
        0.054     0.0143715     0.0143715
        0.055     0.0143517     0.0143517
        0.056     0.0143333     0.0143333
        0.057     0.0143172     0.0143172
        0.058     0.0143035     0.0143035
        0.059     0.0142914     0.0142914
         0.06     0.0142808     0.0142808
        0.061      0.014272      0.014272
        0.062     0.0142643     0.0142643
        0.063     0.0142597     0.0142597
        0.064     0.0142557     0.0142557
        0.065     0.0142511     0.0142511
        0.066     0.0142487     0.0142487
        0.067     0.0142482     0.0142482
        0.068     0.0142477     0.0142477
        0.069     0.0142487     0.0142487
         0.07     0.0142503     0.0142503
        0.071     0.0142526     0.0142526
        0.072     0.0142556     0.0142556
        0.073     0.0142606     0.0142606
        0.074     0.0142656     0.0142656
        0.075     0.0142701     0.0142701
        0.076     0.0142759     0.0142759
        0.077     0.0142831     0.0142831
        0.078      0.014289      0.014289
        0.079     0.0142954     0.0142954
         0.08     0.0143027     0.0143027
        0.081     0.0143103     0.0143103
        0.082     0.0143175     0.0143175
        0.083     0.0143265     0.0143265
        0.084     0.0143355     0.0143355
        0.085     0.0143441     0.0143441
        0.086     0.0143534     0.0143534
        0.087     0.0143633     0.0143633
        0.088     0.0143728     0.0143728
        0.089     0.0143823     0.0143823
         0.09      0.014392      0.014392
        0.091     0.0144018     0.0144018
        0.092     0.0144116     0.0144116
        0.093     0.0144224     0.0144224
        0.094      0.014433      0.014433
        0.095     0.0144439     0.0144439
        0.096     0.0144541     0.0144541
        0.097     0.0144635     0.0144635
        0.098      0.014474      0.014474
        0.099      0.014484      0.014484
          0.1     0.0144947     0.0144947
        0.101     0.0145049     0.0145049
        0.102     0.0145155     0.0145155
        0.103      0.014526      0.014526
        0.104     0.0145372     0.0145372
        0.105     0.0145479     0.0145479
        0.106     0.0145584     0.0145584
        0.107     0.0145684     0.0145684
        0.108     0.0145803     0.0145803
        0.109     0.0145921     0.0145921
         0.11     0.0146012     0.0146012
        0.111      0.014611      0.014611
        0.112     0.0146216     0.0146216
        0.113     0.0146313     0.0146313
        0.114     0.0146421     0.0146421
        0.115     0.0146521     0.0146521
        0.116     0.0146625     0.0146625
        0.117     0.0146729     0.0146729
        0.118     0.0146832     0.0146832
        0.119     0.0146935     0.0146935
         0.12     0.0147043     0.0147043
        0.121     0.0147146     0.0147145
        0.122     0.0147256     0.0147256
        0.123     0.0147348     0.0147348
        0.124     0.0147447     0.0147447
        0.125     0.0147546     0.0147546
        0.126     0.0147646     0.0147646
        0.127     0.0147753     0.0147753
        0.128     0.0147851     0.0147851
        0.129      0.014795      0.014795
         0.13     0.0148061     0.0148061
        0.131     0.0148161     0.0148161
        0.132     0.0148267     0.0148267
        0.133     0.0148364     0.0148364
        0.134     0.0148467     0.0148467
        0.135     0.0148575     0.0148575
        0.136     0.0148658     0.0148658
        0.137     0.0148758     0.0148758
        0.138      0.014885      0.014885
        0.139     0.0148956     0.0148956
         0.14     0.0149048     0.0149048
        0.141     0.0149147     0.0149147
        0.142     0.0149246     0.0149246
        0.143     0.0149343     0.0149343
        0.144     0.0149449     0.0149449
        0.145     0.0149551     0.0149551
        0.146     0.0149646     0.0149646
        0.147     0.0149746     0.0149746
        0.148     0.0149844     0.0149844
        0.149     0.0149942     0.0149942
         0.15     0.0150036     0.0150036
        0.151     0.0150149     0.0150149
        0.152     0.0150251     0.0150251
        0.153     0.0150349     0.0150349
        0.154     0.0150449     0.0150449
        0.155     0.0150551     0.0150551
        0.156     0.0150653     0.0150653
        0.157     0.0150756     0.0150756
        0.158     0.0150856     0.0150856
        0.159     0.0150946     0.0150946
         0.16     0.0151056     0.0151056
        0.161     0.0151155     0.0151155
        0.162     0.0151256     0.0151256
        0.163     0.0151358     0.0151358
        0.164      0.015146      0.015146
        0.165     0.0151551     0.0151551
        0.166     0.0151654     0.0151654
        0.167     0.0151761     0.0151761
        0.168     0.0151866     0.0151866
        0.169     0.0151958     0.0151958
         0.17     0.0152059     0.0152059
        0.171     0.0152159     0.0152159
        0.172     0.0152264     0.0152264
        0.173     0.0152383     0.0152383
        0.174     0.0152474     0.0152474
        0.175     0.0152578     0.0152578
        0.176     0.0152677     0.0152677
        0.177      0.015279      0.015279
        0.178     0.0152893     0.0152893
        0.179     0.0152997     0.0152997
         0.18       0.01531       0.01531
        0.181     0.0153206     0.0153206
        0.182     0.0153312     0.0153312
        0.183     0.0153408     0.0153408
        0.184     0.0153517     0.0153517
        0.185     0.0153624     0.0153624
        0.186     0.0153734     0.0153734
        0.187     0.0153832     0.0153832
        0.188     0.0153938     0.0153938
        0.189     0.0154046     0.0154046
         0.19     0.0154151     0.0154151
        0.191     0.0154257     0.0154257
        0.192     0.0154362     0.0154362
        0.193     0.0154467     0.0154467
        0.194     0.0154569     0.0154569
        0.195     0.0154699     0.0154699
        0.196     0.0154801     0.0154801
        0.197     0.0154898     0.0154898
        0.198     0.0155005     0.0155005
        0.199     0.0155112     0.0155112
          0.2      0.015522      0.015522
        0.201     0.0155329     0.0155329
        0.202     0.0155442     0.0155442
        0.203     0.0155552     0.0155552
        0.204     0.0155665     0.0155665
        0.205     0.0155771     0.0155771
        0.206      0.015588      0.015588
        0.207     0.0155997     0.0155997
        0.208     0.0156112     0.0156112
        0.209      0.015622      0.015622
         0.21     0.0156325     0.0156325
        0.211     0.0156424     0.0156424
        0.212     0.0156535     0.0156535
        0.213     0.0156644     0.0156644
        0.214     0.0156753     0.0156753
        0.215     0.0156872     0.0156872
        0.216     0.0156985     0.0156985
        0.217     0.0157095     0.0157095
        0.218     0.0157207     0.0157207
        0.219     0.0157327     0.0157327
         0.22     0.0157438     0.0157438
        0.221     0.0157551     0.0157551
        0.222     0.0157668     0.0157668
        0.223     0.0157782     0.0157782
        0.224     0.0157902     0.0157902
        0.225     0.0158011     0.0158011
        0.226     0.0158116     0.0158116
        0.227     0.0158232     0.0158232
        0.228     0.0158353     0.0158353
        0.229     0.0158454     0.0158454
         0.23     0.0158568     0.0158568
        0.231     0.0158682     0.0158682
        0.232     0.0158795     0.0158795
        0.233     0.0158908     0.0158908
        0.234     0.0159024     0.0159024
        0.235      0.015914      0.015914
        0.236     0.0159261     0.0159261
        0.237     0.0159372     0.0159372
        0.238     0.0159486     0.0159486
        0.239       0.01596       0.01596
         0.24     0.0159715     0.0159715
        0.241     0.0159829     0.0159829
        0.242     0.0159941     0.0159941
        0.243     0.0160053     0.0160053
        0.244     0.0160181     0.0160181
        0.245     0.0160303     0.0160303
        0.246     0.0160417     0.0160417
        0.247     0.0160522     0.0160522
        0.248     0.0160637     0.0160636
        0.249     0.0160752     0.0160752
         0.25      0.016087      0.016087
        0.251     0.0160991     0.0160991
        0.252     0.0161094     0.0161094
        0.253     0.0161209     0.0161209
        0.254     0.0161327     0.0161327
        0.255     0.0161445     0.0161445
        0.256     0.0161567     0.0161567
        0.257     0.0161664     0.0161664
        0.258     0.0161778     0.0161778
        0.259     0.0161891     0.0161891
         0.26     0.0162007     0.0162007
        0.261     0.0162128     0.0162128
        0.262     0.0162246     0.0162246
        0.263     0.0162362     0.0162362
        0.264     0.0162481     0.0162481
        0.265      0.016259      0.016259
        0.266     0.0162707     0.0162707
        0.267     0.0162814     0.0162814
        0.268     0.0162922     0.0162922
        0.269     0.0163035     0.0163035
         0.27     0.0163146     0.0163146
        0.271     0.0163274     0.0163274
        0.272     0.0163389     0.0163389
        0.273     0.0163502     0.0163502
        0.274     0.0163616     0.0163616
        0.275      0.016373      0.016373
        0.276     0.0163844     0.0163844
        0.277     0.0163961     0.0163961
        0.278     0.0164073     0.0164073
        0.279     0.0164188     0.0164188
         0.28     0.0164303     0.0164303
        0.281     0.0164417     0.0164417
        0.282     0.0164528     0.0164528
        0.283     0.0164637     0.0164637
        0.284      0.016475      0.016475
        0.285     0.0164866     0.0164866
        0.286     0.0164969     0.0164969
        0.287     0.0165083     0.0165083
        0.288     0.0165201     0.0165201
        0.289      0.016532      0.016532
         0.29      0.016543      0.016543
        0.291     0.0165545     0.0165545
        0.292     0.0165652     0.0165652
        0.293     0.0165767     0.0165767
        0.294     0.0165879     0.0165879
        0.295     0.0165994     0.0165994
        0.296     0.0166112     0.0166112
        0.297     0.0166215     0.0166215
        0.298     0.0166332     0.0166332
        0.299     0.0166434     0.0166434
          0.3     0.0166543     0.0166543
        0.301     0.0166661     0.0166661
        0.302     0.0166784     0.0166784
        0.303     0.0166904     0.0166904
        0.304      0.016701      0.016701
        0.305     0.0167112     0.0167112
        0.306     0.0167227     0.0167227
        0.307      0.016734      0.016734
        0.308     0.0167455     0.0167455
        0.309     0.0167556     0.0167556
         0.31     0.0167669     0.0167669
        0.311      0.016778      0.016778
        0.312     0.0167893     0.0167893
        0.313     0.0168004     0.0168004
        0.314     0.0168115     0.0168115
        0.315     0.0168226     0.0168226
        0.316     0.0168342     0.0168342
        0.317     0.0168447     0.0168447
        0.318     0.0168556     0.0168556
        0.319     0.0168672     0.0168672
         0.32     0.0168786     0.0168786
        0.321     0.0168896     0.0168896
        0.322     0.0169006     0.0169006
        0.323     0.0169116     0.0169116
        0.324     0.0169227     0.0169227
        0.325     0.0169341     0.0169341
        0.326     0.0169452     0.0169451
        0.327      0.016956      0.016956
        0.328     0.0169666     0.0169666
        0.329     0.0169776     0.0169776
         0.33     0.0169886     0.0169886
        0.331     0.0169996     0.0169996
        0.332     0.0170108     0.0170108
        0.333     0.0170222     0.0170222
        0.334     0.0170321     0.0170321
        0.335     0.0170429     0.0170429
        0.336     0.0170547     0.0170547
        0.337     0.0170656     0.0170656
        0.338     0.0170767     0.0170767
        0.339     0.0170877     0.0170877
         0.34     0.0170987     0.0170987
        0.341     0.0171096     0.0171096
        0.342      0.017121      0.017121
        0.343     0.0171313     0.0171313
        0.344     0.0171425     0.0171425
        0.345     0.0171538     0.0171538
        0.346     0.0171646     0.0171646
        0.347     0.0171743     0.0171743
        0.348     0.0171851     0.0171851
        0.349      0.017196      0.017196
         0.35     0.0172069     0.0172069
        0.351     0.0172177     0.0172177
        0.352     0.0172286     0.0172286
        0.353     0.0172395     0.0172395
        0.354     0.0172504     0.0172504
        0.355     0.0172605     0.0172605
        0.356     0.0172716     0.0172716
        0.357     0.0172828     0.0172828
        0.358     0.0172934     0.0172934
        0.359     0.0173041     0.0173041
         0.36     0.0173149     0.0173149
        0.361     0.0173258     0.0173258
        0.362     0.0173365     0.0173365
        0.363     0.0173474     0.0173474
        0.364     0.0173584     0.0173584
        0.365     0.0173697     0.0173697
        0.366     0.0173794     0.0173794
        0.367     0.0173906     0.0173906
        0.368     0.0174007     0.0174007
        0.369     0.0174114     0.0174114
         0.37     0.0174231     0.0174231
        0.371     0.0174324     0.0174324
        0.372     0.0174434     0.0174434
        0.373     0.0174535     0.0174535
        0.374     0.0174638     0.0174638
        0.375     0.0174748     0.0174748
        0.376     0.0174861     0.0174861
        0.377     0.0174968     0.0174968
        0.378     0.0175074     0.0175074
        0.379     0.0175181     0.0175181
         0.38     0.0175288     0.0175288
        0.381     0.0175397     0.0175397
        0.382      0.017551      0.017551
        0.383     0.0175622     0.0175622
        0.384      0.017571      0.017571
        0.385     0.0175813     0.0175813
        0.386     0.0175918     0.0175918
        0.387     0.0176018     0.0176018
        0.388     0.0176126     0.0176126
        0.389      0.017623      0.017623
         0.39     0.0176331     0.0176331
        0.391     0.0176442     0.0176442
        0.392     0.0176553     0.0176553
        0.393     0.0176641     0.0176641
        0.394     0.0176748     0.0176748
        0.395      0.017686      0.017686
        0.396      0.017696      0.017696
        0.397     0.0177064     0.0177064
        0.398     0.0177177     0.0177177
        0.399     0.0177277     0.0177277
          0.4     0.0177387     0.0177387
        0.401     0.0177483     0.0177483
        0.402     0.0177585     0.0177585
        0.403     0.0177691     0.0177691
        0.404     0.0177796     0.0177796
        0.405     0.0177904     0.0177904
        0.406     0.0178002     0.0178002
        0.407     0.0178105     0.0178105
        0.408     0.0178211     0.0178211
        0.409     0.0178323     0.0178323
         0.41     0.0178417     0.0178417
        0.411     0.0178521     0.0178521
        0.412     0.0178617     0.0178617
        0.413     0.0178719     0.0178719
        0.414     0.0178823     0.0178823
        0.415     0.0178926     0.0178926
        0.416     0.0179029     0.0179029
        0.417     0.0179134     0.0179134
        0.418      0.017924      0.017924
        0.419     0.0179342     0.0179342
         0.42     0.0179438     0.0179438
        0.421     0.0179539     0.0179539
        0.422      0.017965      0.017965
        0.423     0.0179753     0.0179753
        0.424     0.0179859     0.0179859
        0.425     0.0179956     0.0179956
        0.426     0.0180061     0.0180061
        0.427     0.0180166     0.0180166
        0.428     0.0180267     0.0180267
        0.429     0.0180361     0.0180361
         0.43     0.0180463     0.0180463
        0.431     0.0180569     0.0180569
        0.432     0.0180669     0.0180669
        0.433      0.018077      0.018077
        0.434     0.0180866     0.0180865
        0.435     0.0180968     0.0180968
        0.436     0.0181071     0.0181071
        0.437     0.0181174     0.0181174
        0.438     0.0181271     0.0181271
        0.439     0.0181376     0.0181376
         0.44     0.0181472     0.0181472
        0.441     0.0181574     0.0181574
        0.442     0.0181678     0.0181678
        0.443      0.018177      0.018177
        0.444     0.0181872     0.0181872
        0.445     0.0181972     0.0181972
        0.446     0.0182073     0.0182073
        0.447     0.0182173     0.0182173
        0.448     0.0182277     0.0182277
        0.449     0.0182374     0.0182374
         0.45     0.0182474     0.0182474
        0.451     0.0182575     0.0182575
        0.452     0.0182676     0.0182676
        0.453     0.0182774     0.0182774
        0.454     0.0182876     0.0182876
        0.455     0.0182977     0.0182977
        0.456     0.0183078     0.0183078
        0.457     0.0183177     0.0183177
        0.458     0.0183271     0.0183271
        0.459     0.0183371     0.0183371
         0.46      0.018347      0.018347
        0.461     0.0183571     0.0183571
        0.462     0.0183672     0.0183672
        0.463     0.0183768     0.0183768
        0.464      0.018387      0.018387
        0.465     0.0183967     0.0183967
        0.466     0.0184071     0.0184071
        0.467     0.0184161     0.0184161
        0.468     0.0184266     0.0184266
        0.469     0.0184358     0.0184358
         0.47     0.0184465     0.0184465
        0.471     0.0184557     0.0184557
        0.472     0.0184655     0.0184655
        0.473     0.0184762     0.0184762
        0.474     0.0184847     0.0184847
        0.475     0.0184944     0.0184944
        0.476     0.0185042     0.0185042
        0.477     0.0185147     0.0185147
        0.478     0.0185243     0.0185243
        0.479      0.018534      0.018534
         0.48     0.0185439     0.0185439
        0.481     0.0185537     0.0185537
        0.482     0.0185637     0.0185637
        0.483     0.0185733     0.0185733
        0.484     0.0185833     0.0185833
        0.485     0.0185928     0.0185928
        0.486     0.0186025     0.0186025
        0.487     0.0186123     0.0186123
        0.488     0.0186221     0.0186221
        0.489     0.0186317     0.0186317
         0.49     0.0186415     0.0186415
        0.491     0.0186513     0.0186513
        0.492     0.0186611     0.0186611
        0.493      0.018671      0.018671
        0.494     0.0186809     0.0186809
        0.495     0.0186913     0.0186913
        0.496     0.0187003     0.0187002
        0.497     0.0187099     0.0187099
        0.498     0.0187197     0.0187197
        0.499     0.0187289     0.0187289
          0.5     0.0187383     0.0187383
        0.501     0.0187479     0.0187479
        0.502     0.0187576     0.0187576
        0.503     0.0187674     0.0187674
        0.504     0.0187771     0.0187771
        0.505     0.0187868     0.0187868
        0.506      0.018797      0.018797
        0.507     0.0188057     0.0188057
        0.508     0.0188154     0.0188154
        0.509      0.018825      0.018825
         0.51     0.0188347     0.0188347
        0.511     0.0188444     0.0188444
        0.512      0.018854      0.018854
        0.513     0.0188637     0.0188637
        0.514     0.0188734     0.0188734
        0.515     0.0188831     0.0188831
        0.516     0.0188927     0.0188927
        0.517     0.0189023     0.0189023
        0.518      0.018912      0.018912
        0.519      0.018922      0.018922
         0.52      0.018933      0.018933
        0.521     0.0189405     0.0189405
        0.522     0.0189508     0.0189508
        0.523     0.0189594     0.0189594
        0.524     0.0189691     0.0189691
        0.525     0.0189789     0.0189789
        0.526     0.0189884     0.0189884
        0.527      0.018998      0.018998
        0.528     0.0190076     0.0190076
        0.529     0.0190172     0.0190172
         0.53     0.0190267     0.0190267
        0.531     0.0190363     0.0190363
        0.532     0.0190459     0.0190459
        0.533     0.0190552     0.0190552
        0.534     0.0190651     0.0190651
        0.535     0.0190747     0.0190747
        0.536     0.0190841     0.0190841
        0.537      0.019094      0.019094
        0.538     0.0191037     0.0191037
        0.539     0.0191133     0.0191133
         0.54     0.0191229     0.0191229
        0.541     0.0191326     0.0191326
        0.542     0.0191424     0.0191424
        0.543     0.0191525     0.0191525
        0.544     0.0191641     0.0191641
        0.545     0.0191745     0.0191745
        0.546     0.0191807     0.0191807
        0.547     0.0191909     0.0191909
        0.548     0.0191984     0.0191984
        0.549     0.0192081     0.0192081
         0.55     0.0192191     0.0192191
        0.551     0.0192261     0.0192261
        0.552     0.0192362     0.0192362
        0.553     0.0192469     0.0192469
        0.554     0.0192556     0.0192556
        0.555     0.0192643     0.0192643
        0.556     0.0192742     0.0192742
        0.557     0.0192837     0.0192837
        0.558     0.0192947     0.0192947
        0.559     0.0193025     0.0193025
         0.56     0.0193116     0.0193116
        0.561     0.0193214     0.0193214
        0.562     0.0193312     0.0193312
        0.563      0.019341      0.019341
        0.564     0.0193524     0.0193524
        0.565     0.0193596     0.0193596
        0.566     0.0193689     0.0193689
        0.567     0.0193789     0.0193789
        0.568     0.0193885     0.0193885
        0.569      0.019398      0.019398
         0.57      0.019408      0.019408
        0.571     0.0194188     0.0194188
        0.572     0.0194271     0.0194271
        0.573     0.0194362     0.0194362
        0.574      0.019446      0.019446
        0.575     0.0194561     0.0194561
        0.576     0.0194655     0.0194655
        0.577     0.0194745     0.0194745
        0.578     0.0194842     0.0194842
        0.579     0.0194941     0.0194941
         0.58     0.0195048     0.0195048
        0.581     0.0195124     0.0195124
        0.582     0.0195217     0.0195217
        0.583     0.0195315     0.0195315
        0.584     0.0195412     0.0195412
        0.585     0.0195508     0.0195508
        0.586     0.0195605     0.0195605
        0.587     0.0195702     0.0195702
        0.588     0.0195799     0.0195799
        0.589     0.0195904     0.0195904
         0.59     0.0196001     0.0196001
        0.591     0.0196077     0.0196077
        0.592     0.0196178     0.0196178
        0.593     0.0196271     0.0196271
        0.594     0.0196368     0.0196368
        0.595     0.0196467     0.0196467
        0.596     0.0196562     0.0196562
        0.597     0.0196656     0.0196656
        0.598     0.0196752     0.0196752
        0.599     0.0196848     0.0196848
          0.6     0.0196944     0.0196944
        0.601     0.0197044     0.0197044
        0.602      0.019715      0.019715
        0.603      0.019723      0.019723
        0.604     0.0197323     0.0197323
        0.605      0.019742      0.019742
        0.606     0.0197519     0.0197519
        0.607     0.0197616     0.0197616
        0.608     0.0197713     0.0197713
        0.609     0.0197813     0.0197813
         0.61     0.0197913     0.0197913
        0.611     0.0198001     0.0198001
        0.612     0.0198099     0.0198099
        0.613     0.0198196     0.0198196
        0.614     0.0198297     0.0198297
        0.615     0.0198392     0.0198392
        0.616     0.0198498     0.0198498
        0.617     0.0198582     0.0198582
        0.618     0.0198678     0.0198678
        0.619     0.0198774     0.0198774
         0.62     0.0198875     0.0198875
        0.621     0.0198979     0.0198979
        0.622     0.0199098     0.0199098
        0.623     0.0199193     0.0199193
        0.624      0.019925      0.019925
        0.625     0.0199383     0.0199383
        0.626     0.0199426     0.0199426
        0.627     0.0199545     0.0199545
        0.628     0.0199656     0.0199656
        0.629     0.0199715     0.0199715
         0.63     0.0199832     0.0199832
        0.631     0.0199922     0.0199922
        0.632     0.0200031     0.0200031
        0.633     0.0200137     0.0200137
        0.634     0.0200199     0.0200199
        0.635     0.0200316     0.0200316
        0.636     0.0200406     0.0200406
        0.637     0.0200507     0.0200507
        0.638     0.0200613     0.0200613
        0.639     0.0200705     0.0200705
         0.64     0.0200797     0.0200797
        0.641     0.0200896     0.0200896
        0.642     0.0200995     0.0200995
        0.643     0.0201097     0.0201097
        0.644     0.0201197     0.0201197
        0.645     0.0201299     0.0201299
        0.646     0.0201401     0.0201401
        0.647     0.0201475     0.0201475
        0.648     0.0201583     0.0201583
        0.649     0.0201693     0.0201693
         0.65     0.0201786     0.0201786
        0.651     0.0201878     0.0201878
        0.652     0.0201982     0.0201982
        0.653     0.0202061     0.0202061
        0.654       0.02022     0.0202201
        0.655     0.0202262     0.0202262
        0.656     0.0202369     0.0202369
        0.657     0.0202469     0.0202469
        0.658     0.0202568     0.0202568
        0.659      0.020267      0.020267
         0.66     0.0202775     0.0202775
        0.661     0.0202877     0.0202877
        0.662      0.020297      0.020297
        0.663     0.0203067     0.0203067
        0.664     0.0203166     0.0203166
        0.665     0.0203272     0.0203272
        0.666     0.0203355     0.0203355
        0.667     0.0203455     0.0203455
        0.668     0.0203555     0.0203555
        0.669     0.0203655     0.0203655
         0.67     0.0203755     0.0203755
        0.671     0.0203855     0.0203855
        0.672     0.0203955     0.0203955
        0.673     0.0204055     0.0204055
        0.674     0.0204156     0.0204156
        0.675     0.0204257     0.0204257
        0.676     0.0204374     0.0204374
        0.677     0.0204476     0.0204476
        0.678     0.0204541     0.0204541
        0.679     0.0204653     0.0204653
         0.68     0.0204756     0.0204756
        0.681     0.0204856     0.0204856
        0.682     0.0204954     0.0204954
        0.683     0.0205055     0.0205055
        0.684     0.0205156     0.0205156
        0.685     0.0205257     0.0205257
        0.686     0.0205358     0.0205358
        0.687     0.0205459     0.0205459
        0.688     0.0205561     0.0205561
        0.689     0.0205663     0.0205663
         0.69     0.0205766     0.0205766
        0.691     0.0205871     0.0205871
        0.692     0.0205978     0.0205978
        0.693     0.0206069     0.0206069
        0.694     0.0206173     0.0206173
        0.695     0.0206274     0.0206274
        0.696     0.0206373     0.0206373
        0.697     0.0206477     0.0206477
        0.698     0.0206585     0.0206585
        0.699      0.020674      0.020674
          0.7     0.0206789     0.0206789
        0.701     0.0206885     0.0206885
        0.702     0.0206986     0.0206986
        0.703     0.0207133     0.0207133
        0.704     0.0207164     0.0207164
        0.705      0.020728      0.020728
        0.706     0.0207391     0.0207391
        0.707     0.0207538     0.0207538
        0.708     0.0207574     0.0207574
        0.709     0.0207705     0.0207705
         0.71      0.020779      0.020779
        0.711     0.0207891     0.0207891