# Probe 0 (2 -0.5 0)
# Probe 1 (2 0.5 0)
#       Probe             0             1
#        Time
        0.001             (0.960239 0.0275184 3.38247e-19)             (0.960239 -0.0275184 -4.37903e-18)
        0.002             (0.958578 0.0266773 -1.47052e-20)             (0.958578 -0.0266773 1.33381e-19)
        0.003             (0.958421 0.0267298 -7.07904e-22)             (0.958421 -0.0267298 6.46481e-21)
        0.004             (0.958289 0.0267898 -3.65448e-22)             (0.958289 -0.0267898 2.93031e-21)
        0.005             (0.958177 0.0268504 -2.59123e-22)             (0.958177 -0.0268504 2.04476e-21)
        0.006             (0.95808 0.026911 -2.11833e-22)             (0.95808 -0.026911 1.73489e-21)
        0.007             (0.957992 0.0269713 -1.87897e-22)             (0.957992 -0.0269713 1.62599e-21)
        0.008             (0.957911 0.0270314 -1.74684e-22)             (0.957911 -0.0270314 1.59503e-21)
        0.009             (0.957835 0.0270913 -1.66846e-22)             (0.957835 -0.0270913 1.59435e-21)
         0.01             (0.957763 0.0271509 -1.61855e-22)             (0.957763 -0.0271509 1.60392e-21)
        0.011             (0.957694 0.0272102 -1.58404e-22)             (0.957694 -0.0272102 1.61483e-21)
        0.012             (0.957628 0.0272692 -1.55748e-22)             (0.957628 -0.0272692 1.62278e-21)
        0.013             (0.957563 0.0273279 -1.53501e-22)             (0.957563 -0.0273279 1.62634e-21)
        0.014             (0.9575 0.0273862 -1.51467e-22)             (0.9575 -0.0273862 1.62546e-21)
        0.015             (0.957438 0.0274441 -1.49665e-22)             (0.957438 -0.0274441 1.62202e-21)
        0.016             (0.957377 0.0275017 -1.47875e-22)             (0.957377 -0.0275017 1.61464e-21)
        0.017             (0.957317 0.0275588 -1.46165e-22)             (0.957317 -0.0275588 1.60506e-21)
        0.018             (0.957258 0.0276155 -1.44499e-22)             (0.957258 -0.0276155 1.59357e-21)
        0.019             (0.9572 0.0276717 -1.42867e-22)             (0.9572 -0.0276717 1.58058e-21)
         0.02             (0.957142 0.0277275 -1.4129e-22)             (0.957142 -0.0277275 1.56673e-21)
        0.021             (0.957085 0.0277828 -1.39766e-22)             (0.957085 -0.0277828 1.55236e-21)
        0.022             (0.957028 0.0278376 -1.38277e-22)             (0.957028 -0.0278376 1.53749e-21)
        0.023             (0.956971 0.0278919 -1.36841e-22)             (0.956971 -0.0278919 1.52254e-21)
        0.024             (0.956916 0.0279457 -1.35462e-22)             (0.956916 -0.0279457 1.50771e-21)
        0.025             (0.95686 0.0279991 -1.34138e-22)             (0.95686 -0.0279991 1.49309e-21)
        0.026             (0.956805 0.028052 -1.32879e-22)             (0.956805 -0.028052 1.4789e-21)
        0.027             (0.95675 0.0281044 -1.31676e-22)             (0.95675 -0.0281044 1.46513e-21)
        0.028             (0.956696 0.0281563 -1.3053e-22)             (0.956696 -0.0281563 1.45184e-21)
        0.029             (0.956642 0.0282078 -1.29438e-22)             (0.956642 -0.0282078 1.43905e-21)
         0.03             (0.956589 0.0282588 -1.28397e-22)             (0.956589 -0.0282588 1.42676e-21)
        0.031             (0.956535 0.0283093 -1.27407e-22)             (0.956535 -0.0283093 1.41502e-21)
        0.032             (0.956483 0.0283593 -1.26464e-22)             (0.956483 -0.0283593 1.40378e-21)
        0.033             (0.95643 0.028409 -1.25569e-22)             (0.95643 -0.028409 1.3931e-21)
        0.034             (0.956378 0.0284582 -1.24718e-22)             (0.956378 -0.0284582 1.38291e-21)
        0.035             (0.956326 0.0285069 -1.23913e-22)             (0.956326 -0.0285069 1.37327e-21)
        0.036             (0.956274 0.0285552 -1.23148e-22)             (0.956274 -0.0285552 1.36413e-21)
        0.037             (0.956223 0.0286031 -1.22422e-22)             (0.956223 -0.0286031 1.35547e-21)
        0.038             (0.956172 0.0286506 -1.21736e-22)             (0.956172 -0.0286506 1.34731e-21)
        0.039             (0.956121 0.0286977 -1.21083e-22)             (0.956121 -0.0286977 1.33955e-21)
         0.04             (0.956071 0.0287444 -1.20468e-22)             (0.956071 -0.0287444 1.33228e-21)
        0.041             (0.956021 0.0287907 -1.19885e-22)             (0.956021 -0.0287907 1.32542e-21)
        0.042             (0.955971 0.0288366 -1.19333e-22)             (0.955971 -0.0288366 1.31896e-21)
        0.043             (0.955922 0.0288821 -1.18809e-22)             (0.955922 -0.0288821 1.31287e-21)
        0.044             (0.955873 0.0289273 -1.18314e-22)             (0.955873 -0.0289273 1.30716e-21)
        0.045             (0.955824 0.0289721 -1.17856e-22)             (0.955824 -0.0289721 1.30192e-21)
        0.046             (0.955775 0.0290165 -1.17411e-22)             (0.955775 -0.0290165 1.29684e-21)
        0.047             (0.955727 0.0290606 -1.16995e-22)             (0.955727 -0.0290606 1.29215e-21)
        0.048             (0.955679 0.0291044 -1.16605e-22)             (0.955679 -0.0291044 1.28779e-21)
        0.049             (0.955631 0.0291478 -1.16239e-22)             (0.955631 -0.0291478 1.28374e-21)
         0.05             (0.955583 0.0291909 -1.15887e-22)             (0.955583 -0.0291909 1.27987e-21)
        0.051             (0.955536 0.0292337 -1.15562e-22)             (0.955536 -0.0292337 1.27635e-21)
        0.052             (0.955489 0.0292761 -1.15252e-22)             (0.955489 -0.0292761 1.27302e-21)
        0.053             (0.955442 0.0293183 -1.14965e-22)             (0.955442 -0.0293183 1.26998e-21)
        0.054             (0.955395 0.0293601 -1.14704e-22)             (0.955395 -0.0293601 1.26726e-21)
        0.055             (0.955349 0.0294017 -1.14455e-22)             (0.955349 -0.0294017 1.26469e-21)
        0.056             (0.955303 0.029443 -1.14217e-22)             (0.955303 -0.029443 1.26227e-21)
        0.057             (0.955257 0.0294839 -1.13998e-22)             (0.955257 -0.0294839 1.26007e-21)
        0.058             (0.955211 0.0295247 -1.13795e-22)             (0.955211 -0.0295247 1.25808e-21)
        0.059             (0.955166 0.0295651 -1.13606e-22)             (0.955166 -0.0295651 1.25624e-21)
         0.06             (0.955121 0.0296052 -1.13428e-22)             (0.955121 -0.0296052 1.25456e-21)
        0.061             (0.955076 0.0296451 -1.13264e-22)             (0.955076 -0.0296451 1.25305e-21)
        0.062             (0.955031 0.0296848 -1.13109e-22)             (0.955031 -0.0296848 1.25164e-21)
        0.063             (0.954987 0.0297242 -1.12977e-22)             (0.954987 -0.0297242 1.25051e-21)
        0.064             (0.954942 0.0297633 -1.12851e-22)             (0.954942 -0.0297633 1.24945e-21)
        0.065             (0.954898 0.0298022 -1.12722e-22)             (0.954898 -0.0298022 1.24836e-21)
        0.066             (0.954854 0.0298408 -1.1261e-22)             (0.954854 -0.0298408 1.24747e-21)
        0.067             (0.95481 0.0298793 -1.12512e-22)             (0.95481 -0.0298793 1.24675e-21)
        0.068             (0.954767 0.0299175 -1.12416e-22)             (0.954767 -0.0299175 1.24604e-21)
        0.069             (0.954724 0.0299554 -1.12332e-22)             (0.954724 -0.0299554 1.24548e-21)
         0.07             (0.95468 0.0299932 -1.12253e-22)             (0.95468 -0.0299932 1.24498e-21)
        0.071             (0.954637 0.0300307 -1.12181e-22)             (0.954637 -0.0300307 1.24455e-21)
        0.072             (0.954595 0.030068 -1.12114e-22)             (0.954595 -0.030068 1.2442e-21)
        0.073             (0.954552 0.0301051 -1.12062e-22)             (0.954552 -0.0301051 1.24402e-21)
        0.074             (0.95451 0.030142 -1.12013e-22)             (0.95451 -0.030142 1.24386e-21)
        0.075             (0.954467 0.0301787 -1.11962e-22)             (0.954467 -0.0301787 1.24367e-21)
        0.076             (0.954425 0.0302153 -1.1192e-22)             (0.954425 -0.0302153 1.24359e-21)
        0.077             (0.954383 0.0302516 -1.1189e-22)             (0.954383 -0.0302516 1.24365e-21)
        0.078             (0.954341 0.0302877 -1.11852e-22)             (0.954341 -0.0302877 1.24361e-21)
        0.079             (0.9543 0.0303236 -1.11819e-22)             (0.9543 -0.0303236 1.24363e-21)
         0.08             (0.954258 0.0303594 -1.11792e-22)             (0.954258 -0.0303594 1.24372e-21)
        0.081             (0.954217 0.030395 -1.11769e-22)             (0.954217 -0.030395 1.24385e-21)
        0.082             (0.954176 0.0304304 -1.11746e-22)             (0.954176 -0.0304304 1.24396e-21)
        0.083             (0.954135 0.0304656 -1.11735e-22)             (0.954135 -0.0304656 1.24423e-21)
        0.084             (0.954094 0.0305007 -1.11725e-22)             (0.954094 -0.0305007 1.24451e-21)
        0.085             (0.954053 0.0305356 -1.11714e-22)             (0.954053 -0.0305356 1.24476e-21)
        0.086             (0.954012 0.0305703 -1.11708e-22)             (0.954012 -0.0305703 1.24508e-21)
        0.087             (0.953972 0.0306049 -1.11709e-22)             (0.953972 -0.0306049 1.24546e-21)
        0.088             (0.953932 0.0306394 -1.11707e-22)             (0.953932 -0.0306394 1.24581e-21)
        0.089             (0.953891 0.0306736 -1.11707e-22)             (0.953891 -0.0306736 1.24618e-21)
         0.09             (0.953851 0.0307078 -1.11708e-22)             (0.953851 -0.0307078 1.24656e-21)
        0.091             (0.953811 0.0307417 -1.11712e-22)             (0.953811 -0.0307417 1.24696e-21)
        0.092             (0.953772 0.0307756 -1.11717e-22)             (0.953772 -0.0307756 1.24738e-21)
        0.093             (0.953732 0.0308093 -1.11729e-22)             (0.953732 -0.0308093 1.24788e-21)
        0.094             (0.953692 0.0308428 -1.11741e-22)             (0.953692 -0.0308428 1.24837e-21)
        0.095             (0.953653 0.0308762 -1.11756e-22)             (0.953653 -0.0308762 1.2489e-21)
        0.096             (0.953613 0.0309095 -1.11767e-22)             (0.953613 -0.0309095 1.24937e-21)
        0.097             (0.953574 0.0309427 -1.11773e-22)             (0.953574 -0.0309427 1.24978e-21)
        0.098             (0.953535 0.0309757 -1.11789e-22)             (0.953535 -0.0309757 1.25029e-21)
        0.099             (0.953496 0.0310086 -1.11801e-22)             (0.953496 -0.0310086 1.25076e-21)
          0.1             (0.953457 0.0310414 -1.11819e-22)             (0.953457 -0.0310414 1.2513e-21)
        0.101             (0.953418 0.031074 -1.11834e-22)             (0.953418 -0.031074 1.2518e-21)
        0.102             (0.95338 0.0311066 -1.11853e-22)             (0.95338 -0.0311066 1.25235e-21)
        0.103             (0.953341 0.031139 -1.11872e-22)             (0.953341 -0.031139 1.25288e-21)
        0.104             (0.953303 0.0311713 -1.11897e-22)             (0.953303 -0.0311713 1.25349e-21)
        0.105             (0.953264 0.0312035 -1.11918e-22)             (0.953264 -0.0312035 1.25406e-21)
        0.106             (0.953226 0.0312356 -1.11939e-22)             (0.953226 -0.0312356 1.25461e-21)
        0.107             (0.953188 0.0312675 -1.11957e-22)             (0.953188 -0.0312675 1.25513e-21)
        0.108             (0.95315 0.0312994 -1.11989e-22)             (0.95315 -0.0312994 1.25582e-21)
        0.109             (0.953111 0.0313312 -1.12021e-22)             (0.953111 -0.0313312 1.2565e-21)
         0.11             (0.953074 0.0313628 -1.12036e-22)             (0.953074 -0.0313628 1.25696e-21)
        0.111             (0.953036 0.0313944 -1.12056e-22)             (0.953036 -0.0313944 1.25748e-21)
        0.112             (0.952998 0.0314259 -1.12082e-22)             (0.952998 -0.0314259 1.25807e-21)
        0.113             (0.95296 0.0314572 -1.12102e-22)             (0.95296 -0.0314572 1.2586e-21)
        0.114             (0.952923 0.0314885 -1.12131e-22)             (0.952923 -0.0314885 1.25921e-21)
        0.115             (0.952885 0.0315197 -1.12154e-22)             (0.952885 -0.0315197 1.25977e-21)
        0.116             (0.952848 0.0315508 -1.12181e-22)             (0.952848 -0.0315508 1.26036e-21)
        0.117             (0.95281 0.0315818 -1.12209e-22)             (0.95281 -0.0315818 1.26097e-21)
        0.118             (0.952773 0.0316127 -1.12236e-22)             (0.952773 -0.0316127 1.26156e-21)
        0.119             (0.952736 0.0316436 -1.12264e-22)             (0.952736 -0.0316436 1.26216e-21)
         0.12             (0.952699 0.0316743 -1.12296e-22)             (0.952699 -0.0316743 1.26281e-21)
        0.121             (0.952662 0.031705 -1.12325e-22)             (0.952662 -0.031705 1.26341e-21)
        0.122             (0.952625 0.0317356 -1.1236e-22)             (0.952625 -0.0317356 1.26409e-21)
        0.123             (0.952588 0.0317661 -1.12384e-22)             (0.952588 -0.0317661 1.26461e-21)
        0.124             (0.952551 0.0317965 -1.12412e-22)             (0.952551 -0.0317965 1.2652e-21)
        0.125             (0.952514 0.0318269 -1.12441e-22)             (0.952514 -0.0318269 1.26579e-21)
        0.126             (0.952477 0.0318572 -1.1247e-22)             (0.952477 -0.0318572 1.26638e-21)
        0.127             (0.952441 0.0318874 -1.12506e-22)             (0.952441 -0.0318874 1.26705e-21)
        0.128             (0.952404 0.0319176 -1.12535e-22)             (0.952404 -0.0319176 1.26764e-21)
        0.129             (0.952368 0.0319476 -1.12566e-22)             (0.952368 -0.0319476 1.26825e-21)
         0.13             (0.952331 0.0319776 -1.12605e-22)             (0.952331 -0.0319776 1.26896e-21)
        0.131             (0.952295 0.0320076 -1.12637e-22)             (0.952295 -0.0320076 1.26957e-21)
        0.132             (0.952258 0.0320375 -1.12674e-22)             (0.952258 -0.0320375 1.27025e-21)
        0.133             (0.952222 0.0320673 -1.12705e-22)             (0.952222 -0.0320673 1.27084e-21)
        0.134             (0.952186 0.032097 -1.12741e-22)             (0.952186 -0.032097 1.2715e-21)
        0.135             (0.95215 0.0321267 -1.12781e-22)             (0.95215 -0.0321267 1.2722e-21)
        0.136             (0.952114 0.0321563 -1.12804e-22)             (0.952114 -0.0321563 1.27269e-21)
        0.137             (0.952078 0.0321859 -1.12839e-22)             (0.952078 -0.0321859 1.27332e-21)
        0.138             (0.952041 0.0322154 -1.1287e-22)             (0.952041 -0.0322154 1.2739e-21)
        0.139             (0.952006 0.0322449 -1.1291e-22)             (0.952006 -0.0322449 1.27459e-21)
         0.14             (0.95197 0.0322743 -1.12941e-22)             (0.95197 -0.0322743 1.27517e-21)
        0.141             (0.951934 0.0323036 -1.12977e-22)             (0.951934 -0.0323036 1.27581e-21)
        0.142             (0.951898 0.0323329 -1.13014e-22)             (0.951898 -0.0323329 1.27646e-21)
        0.143             (0.951862 0.0323622 -1.13049e-22)             (0.951862 -0.0323622 1.27708e-21)
        0.144             (0.951826 0.0323914 -1.13091e-22)             (0.951826 -0.0323914 1.27779e-21)
        0.145             (0.951791 0.0324205 -1.13131e-22)             (0.951791 -0.0324205 1.27847e-21)
        0.146             (0.951755 0.0324496 -1.13167e-22)             (0.951755 -0.0324496 1.27909e-21)
        0.147             (0.95172 0.0324786 -1.13206e-22)             (0.95172 -0.0324786 1.27975e-21)
        0.148             (0.951684 0.0325076 -1.13245e-22)             (0.951684 -0.0325076 1.28041e-21)
        0.149             (0.951649 0.0325366 -1.13284e-22)             (0.951649 -0.0325366 1.28106e-21)
         0.15             (0.951613 0.0325655 -1.1332e-22)             (0.951613 -0.0325655 1.28168e-21)
        0.151             (0.951578 0.0325944 -1.1337e-22)             (0.951578 -0.0325944 1.28246e-21)
        0.152             (0.951542 0.0326232 -1.13412e-22)             (0.951542 -0.0326232 1.28316e-21)
        0.153             (0.951507 0.032652 -1.13453e-22)             (0.951507 -0.032652 1.28382e-21)
        0.154             (0.951472 0.0326807 -1.13495e-22)             (0.951472 -0.0326807 1.28451e-21)
        0.155             (0.951436 0.0327094 -1.13539e-22)             (0.951436 -0.0327094 1.28521e-21)
        0.156             (0.951401 0.0327381 -1.13583e-22)             (0.951401 -0.0327381 1.28591e-21)
        0.157             (0.951366 0.0327667 -1.13628e-22)             (0.951366 -0.0327667 1.28662e-21)
        0.158             (0.951331 0.0327953 -1.13672e-22)             (0.951331 -0.0327953 1.28732e-21)
        0.159             (0.951296 0.0328238 -1.13709e-22)             (0.951296 -0.0328238 1.28792e-21)
         0.16             (0.951261 0.0328524 -1.1376e-22)             (0.951261 -0.0328524 1.2887e-21)
        0.161             (0.951226 0.0328808 -1.13804e-22)             (0.951226 -0.0328808 1.28939e-21)
        0.162             (0.951191 0.0329093 -1.13849e-22)             (0.951191 -0.0329093 1.2901e-21)
        0.163             (0.951156 0.0329377 -1.13895e-22)             (0.951156 -0.0329377 1.29082e-21)
        0.164             (0.951121 0.0329661 -1.13942e-22)             (0.951121 -0.0329661 1.29154e-21)
        0.165             (0.951086 0.0329944 -1.13982e-22)             (0.951086 -0.0329944 1.29217e-21)
        0.166             (0.951051 0.0330228 -1.1403e-22)             (0.951051 -0.0330228 1.2929e-21)
        0.167             (0.951016 0.033051 -1.14081e-22)             (0.951016 -0.033051 1.29367e-21)
        0.168             (0.950981 0.0330793 -1.14131e-22)             (0.950981 -0.0330793 1.29442e-21)
        0.169             (0.950947 0.0331075 -1.14174e-22)             (0.950947 -0.0331075 1.29507e-21)
         0.17             (0.950912 0.0331357 -1.14221e-22)             (0.950912 -0.0331357 1.29579e-21)
        0.171             (0.950877 0.0331639 -1.14269e-22)             (0.950877 -0.0331639 1.2965e-21)
        0.172             (0.950842 0.0331921 -1.1432e-22)             (0.950842 -0.0331921 1.29726e-21)
        0.173             (0.950808 0.0332202 -1.14382e-22)             (0.950808 -0.0332202 1.29815e-21)
        0.174             (0.950773 0.0332483 -1.14424e-22)             (0.950773 -0.0332483 1.29879e-21)
        0.175             (0.950738 0.0332764 -1.14476e-22)             (0.950738 -0.0332764 1.29955e-21)
        0.176             (0.950704 0.0333044 -1.14524e-22)             (0.950704 -0.0333044 1.30026e-21)
        0.177             (0.950669 0.0333325 -1.14582e-22)             (0.950669 -0.0333325 1.3011e-21)
        0.178             (0.950635 0.0333605 -1.14634e-22)             (0.950635 -0.0333605 1.30186e-21)
        0.179             (0.9506 0.0333885 -1.14686e-22)             (0.9506 -0.0333885 1.30261e-21)
         0.18             (0.950566 0.0334164 -1.14739e-22)             (0.950566 -0.0334164 1.30338e-21)
        0.181             (0.950531 0.0334444 -1.14793e-22)             (0.950531 -0.0334444 1.30415e-21)
        0.182             (0.950497 0.0334723 -1.14848e-22)             (0.950497 -0.0334723 1.30494e-21)
        0.183             (0.950462 0.0335002 -1.14896e-22)             (0.950462 -0.0335002 1.30564e-21)
        0.184             (0.950428 0.0335281 -1.14953e-22)             (0.950428 -0.0335281 1.30646e-21)
        0.185             (0.950393 0.033556 -1.1501e-22)             (0.950393 -0.033556 1.30726e-21)
        0.186             (0.950359 0.0335838 -1.15069e-22)             (0.950359 -0.0335838 1.30808e-21)
        0.187             (0.950325 0.0336117 -1.1512e-22)             (0.950325 -0.0336117 1.30881e-21)
        0.188             (0.95029 0.0336395 -1.15176e-22)             (0.95029 -0.0336395 1.3096e-21)
        0.189             (0.950256 0.0336673 -1.15234e-22)             (0.950256 -0.0336673 1.31041e-21)
         0.19             (0.950222 0.0336951 -1.1529e-22)             (0.950222 -0.0336951 1.3112e-21)
        0.191             (0.950187 0.0337229 -1.15347e-22)             (0.950187 -0.0337229 1.312e-21)
        0.192             (0.950153 0.0337506 -1.15404e-22)             (0.950153 -0.0337506 1.31279e-21)
        0.193             (0.950119 0.0337784 -1.15461e-22)             (0.950119 -0.0337784 1.31357e-21)
        0.194             (0.950084 0.0338061 -1.15516e-22)             (0.950084 -0.0338061 1.31434e-21)
        0.195             (0.95005 0.0338338 -1.1559e-22)             (0.95005 -0.0338338 1.31535e-21)
        0.196             (0.950016 0.0338615 -1.15646e-22)             (0.950016 -0.0338615 1.31612e-21)
        0.197             (0.949982 0.0338892 -1.15698e-22)             (0.949982 -0.0338892 1.31685e-21)
        0.198             (0.949948 0.0339169 -1.15758e-22)             (0.949948 -0.0339169 1.31766e-21)
        0.199             (0.949913 0.0339446 -1.15818e-22)             (0.949913 -0.0339446 1.31848e-21)
          0.2             (0.949879 0.0339723 -1.15878e-22)             (0.949879 -0.0339723 1.3193e-21)
        0.201             (0.949845 0.0339999 -1.1594e-22)             (0.949845 -0.0339999 1.32014e-21)
        0.202             (0.949811 0.0340276 -1.16004e-22)             (0.949811 -0.0340276 1.32101e-21)
        0.203             (0.949777 0.0340552 -1.16066e-22)             (0.949777 -0.0340552 1.32186e-21)
        0.204             (0.949743 0.0340828 -1.16131e-22)             (0.949743 -0.0340828 1.32273e-21)
        0.205             (0.949709 0.0341104 -1.16191e-22)             (0.949709 -0.0341104 1.32354e-21)
        0.206             (0.949675 0.0341381 -1.16254e-22)             (0.949675 -0.0341381 1.32439e-21)
        0.207             (0.94964 0.0341657 -1.16322e-22)             (0.94964 -0.0341657 1.3253e-21)
        0.208             (0.949606 0.0341933 -1.16389e-22)             (0.949606 -0.0341933 1.32619e-21)
        0.209             (0.949572 0.0342208 -1.16452e-22)             (0.949572 -0.0342208 1.32702e-21)
         0.21             (0.949538 0.0342484 -1.16512e-22)             (0.949538 -0.0342484 1.32783e-21)
        0.211             (0.949504 0.034276 -1.1657e-22)             (0.949504 -0.034276 1.3286e-21)
        0.212             (0.94947 0.0343036 -1.16635e-22)             (0.94947 -0.0343036 1.32946e-21)
        0.213             (0.949436 0.0343312 -1.16699e-22)             (0.949436 -0.0343312 1.33031e-21)
        0.214             (0.949402 0.0343587 -1.16763e-22)             (0.949402 -0.0343587 1.33116e-21)
        0.215             (0.949368 0.0343863 -1.16834e-22)             (0.949368 -0.0343863 1.33209e-21)
        0.216             (0.949334 0.0344139 -1.16902e-22)             (0.949334 -0.0344139 1.33298e-21)
        0.217             (0.9493 0.0344414 -1.16967e-22)             (0.9493 -0.0344414 1.33383e-21)
        0.218             (0.949266 0.034469 -1.17035e-22)             (0.949266 -0.034469 1.33472e-21)
        0.219             (0.949232 0.0344965 -1.17107e-22)             (0.949232 -0.0344965 1.33566e-21)
         0.22             (0.949198 0.0345241 -1.17173e-22)             (0.949198 -0.0345241 1.33653e-21)
        0.221             (0.949164 0.0345516 -1.17242e-22)             (0.949164 -0.0345516 1.33742e-21)
        0.222             (0.94913 0.0345792 -1.17313e-22)             (0.94913 -0.0345792 1.33835e-21)
        0.223             (0.949096 0.0346067 -1.17383e-22)             (0.949096 -0.0346067 1.33925e-21)
        0.224             (0.949062 0.0346342 -1.17456e-22)             (0.949062 -0.0346342 1.3402e-21)
        0.225             (0.949028 0.0346618 -1.17523e-22)             (0.949028 -0.0346618 1.34106e-21)
        0.226             (0.948994 0.0346893 -1.17586e-22)             (0.948994 -0.0346893 1.34188e-21)
        0.227             (0.948961 0.0347169 -1.17658e-22)             (0.948961 -0.0347169 1.34281e-21)
        0.228             (0.948927 0.0347444 -1.17733e-22)             (0.948927 -0.0347444 1.34377e-21)
        0.229             (0.948893 0.034772 -1.17795e-22)             (0.948893 -0.034772 1.34456e-21)
         0.23             (0.948859 0.0347995 -1.17865e-22)             (0.948859 -0.0347995 1.34547e-21)
        0.231             (0.948825 0.0348271 -1.17935e-22)             (0.948825 -0.0348271 1.34637e-21)
        0.232             (0.948791 0.0348546 -1.18006e-22)             (0.948791 -0.0348546 1.34727e-21)
        0.233             (0.948757 0.0348822 -1.18076e-22)             (0.948757 -0.0348822 1.34817e-21)
        0.234             (0.948723 0.0349097 -1.18149e-22)             (0.948723 -0.0349097 1.34909e-21)
        0.235             (0.948689 0.0349373 -1.18222e-22)             (0.948689 -0.0349373 1.35002e-21)
        0.236             (0.948655 0.0349649 -1.18299e-22)             (0.948655 -0.0349649 1.35099e-21)
        0.237             (0.948621 0.0349924 -1.18369e-22)             (0.948621 -0.0349924 1.35188e-21)
        0.238             (0.948587 0.03502 -1.18441e-22)             (0.948587 -0.03502 1.35279e-21)
        0.239             (0.948554 0.0350476 -1.18513e-22)             (0.948554 -0.0350476 1.3537e-21)
         0.24             (0.94852 0.0350751 -1.18586e-22)             (0.94852 -0.0350751 1.35462e-21)
        0.241             (0.948486 0.0351027 -1.18658e-22)             (0.948486 -0.0351027 1.35553e-21)
        0.242             (0.948452 0.0351303 -1.1873e-22)             (0.948452 -0.0351303 1.35643e-21)
        0.243             (0.948418 0.0351579 -1.18801e-22)             (0.948418 -0.0351579 1.35733e-21)
        0.244             (0.948384 0.0351855 -1.18883e-22)             (0.948384 -0.0351855 1.35836e-21)
        0.245             (0.94835 0.0352131 -1.18962e-22)             (0.94835 -0.0352131 1.35935e-21)
        0.246             (0.948316 0.0352407 -1.19035e-22)             (0.948316 -0.0352407 1.36026e-21)
        0.247             (0.948282 0.0352683 -1.19102e-22)             (0.948282 -0.0352683 1.3611e-21)
        0.248             (0.948248 0.035296 -1.19176e-22)             (0.948248 -0.035296 1.36202e-21)
        0.249             (0.948215 0.0353236 -1.19251e-22)             (0.948215 -0.0353236 1.36295e-21)
         0.25             (0.948181 0.0353512 -1.19328e-22)             (0.948181 -0.0353512 1.36391e-21)
        0.251             (0.948147 0.0353789 -1.19406e-22)             (0.948147 -0.0353789 1.36488e-21)
        0.252             (0.948113 0.0354065 -1.19473e-22)             (0.948113 -0.0354065 1.36571e-21)
        0.253             (0.948079 0.0354342 -1.19548e-22)             (0.948079 -0.0354342 1.36664e-21)
        0.254             (0.948045 0.0354619 -1.19625e-22)             (0.948045 -0.0354619 1.36759e-21)
        0.255             (0.948011 0.0354895 -1.19703e-22)             (0.948011 -0.0354895 1.36855e-21)
        0.256             (0.947977 0.0355172 -1.19783e-22)             (0.947977 -0.0355172 1.36954e-21)
        0.257             (0.947943 0.0355449 -1.19846e-22)             (0.947943 -0.0355449 1.37031e-21)
        0.258             (0.947909 0.0355726 -1.19922e-22)             (0.947909 -0.0355726 1.37124e-21)
        0.259             (0.947875 0.0356003 -1.19996e-22)             (0.947875 -0.0356003 1.37215e-21)
         0.26             (0.947841 0.0356281 -1.20073e-22)             (0.947841 -0.0356281 1.3731e-21)
        0.261             (0.947808 0.0356558 -1.20153e-22)             (0.947808 -0.0356558 1.37408e-21)
        0.262             (0.947774 0.0356835 -1.20231e-22)             (0.947774 -0.0356835 1.37503e-21)
        0.263             (0.94774 0.0357113 -1.20309e-22)             (0.94774 -0.0357113 1.37598e-21)
        0.264             (0.947706 0.0357391 -1.20388e-22)             (0.947706 -0.0357391 1.37694e-21)
        0.265             (0.947672 0.0357668 -1.20461e-22)             (0.947672 -0.0357668 1.37783e-21)
        0.266             (0.947638 0.0357946 -1.20539e-22)             (0.947638 -0.0357946 1.37879e-21)
        0.267             (0.947604 0.0358224 -1.20611e-22)             (0.947604 -0.0358224 1.37965e-21)
        0.268             (0.94757 0.0358502 -1.20683e-22)             (0.94757 -0.0358502 1.38053e-21)
        0.269             (0.947536 0.035878 -1.20759e-22)             (0.947536 -0.035878 1.38145e-21)
         0.27             (0.947502 0.0359059 -1.20834e-22)             (0.947502 -0.0359059 1.38235e-21)
        0.271             (0.947468 0.0359337 -1.2092e-22)             (0.947468 -0.0359337 1.3834e-21)
        0.272             (0.947434 0.0359616 -1.20998e-22)             (0.947434 -0.0359616 1.38433e-21)
        0.273             (0.9474 0.0359894 -1.21075e-22)             (0.9474 -0.0359894 1.38526e-21)
        0.274             (0.947366 0.0360173 -1.21152e-22)             (0.947366 -0.0360173 1.38619e-21)
        0.275             (0.947332 0.0360452 -1.21229e-22)             (0.947332 -0.0360452 1.38712e-21)
        0.276             (0.947298 0.0360731 -1.21306e-22)             (0.947298 -0.0360731 1.38805e-21)
        0.277             (0.947264 0.036101 -1.21386e-22)             (0.947264 -0.036101 1.389e-21)
        0.278             (0.94723 0.036129 -1.21462e-22)             (0.94723 -0.036129 1.38991e-21)
        0.279             (0.947196 0.0361569 -1.21541e-22)             (0.947196 -0.0361569 1.39086e-21)
         0.28             (0.947162 0.0361849 -1.21619e-22)             (0.947162 -0.0361849 1.39179e-21)
        0.281             (0.947128 0.0362128 -1.21698e-22)             (0.947128 -0.0362128 1.39273e-21)
        0.282             (0.947094 0.0362408 -1.21773e-22)             (0.947094 -0.0362408 1.39363e-21)
        0.283             (0.94706 0.0362688 -1.21849e-22)             (0.94706 -0.0362688 1.39453e-21)