/*--------------------------------*- C++ -*----------------------------------*\
  =========                 |
  \\      /  F ield         | OpenFOAM: The Open Source CFD Toolbox
   \\    /   O peration     | Website:  https://openfoam.org
    \\  /    A nd           | Version:  7
     \\/     M anipulation  |
\*---------------------------------------------------------------------------*/
FoamFile
{
    version     2.0;
    format      ascii;
    class       volScalarField;
    location    "10";
    object      p;
}
// * * * * * * * * * * * * * * * * * * * * * * * * * * * * * * * * * * * * * //

dimensions      [0 2 -2 0 0 0 0];

internalField   nonuniform List<scalar> 
656
(
0.0710878
0.211674
0.210509
0.20789
0.204073
0.19911
0.193065
0.18604
0.178172
0.169632
0.160609
0.1513
0.141895
0.132563
0.123447
0.114666
0.211805
0.210657
0.208067
0.204294
0.199381
0.19339
0.186416
0.178594
0.170088
0.161087
0.151785
0.142372
0.133019
0.123871
0.115047
0.21205
0.210931
0.208397
0.204704
0.199886
0.193994
0.187118
0.179381
0.170942
0.161983
0.152696
0.143271
0.13388
0.124674
0.115772
0.212389
0.21131
0.208856
0.205274
0.200587
0.194837
0.188098
0.180485
0.172142
0.163245
0.153983
0.144544
0.135104
0.125819
0.116807
0.212806
0.211774
0.209419
0.205977
0.201453
0.19588
0.189317
0.181861
0.173643
0.164831
0.155605
0.146155
0.136657
0.127277
0.118128
0.213284
0.212307
0.210068
0.206787
0.202455
0.197092
0.190737
0.183471
0.175408
0.166703
0.157528
0.148072
0.138512
0.129027
0.119716
0.21381
0.212893
0.210783
0.207683
0.203568
0.198442
0.192325
0.185281
0.177401
0.168827
0.15972
0.150267
0.140646
0.13105
0.121555
0.214372
0.213519
0.211549
0.208645
0.204766
0.199903
0.194053
0.187258
0.17959
0.171174
0.162154
0.152719
0.143039
0.133331
0.123634
0.214958
0.214172
0.212352
0.209655
0.206031
0.20145
0.195892
0.189376
0.181947
0.173715
0.164805
0.155404
0.145674
0.135857
0.125939
0.215559
0.214843
0.213178
0.2107
0.207342
0.203064
0.197819
0.191607
0.184445
0.176426
0.167649
0.158304
0.148532
0.138617
0.128462
0.216167
0.215523
0.214018
0.211764
0.208685
0.204723
0.199812
0.193928
0.18706
0.179282
0.170664
0.161399
0.1516
0.141601
0.131193
0.216776
0.216204
0.214862
0.212837
0.210044
0.206411
0.20185
0.196317
0.189769
0.18226
0.173829
0.164671
0.154859
0.144798
0.134121
0.21738
0.216879
0.215702
0.213909
0.211408
0.208113
0.203917
0.198755
0.19255
0.185341
0.177124
0.168103
0.158295
0.148198
0.137235
0.217974
0.217545
0.216532
0.214971
0.212766
0.209816
0.205997
0.201222
0.195384
0.188503
0.180528
0.171677
0.161893
0.151792
0.140525
0.218555
0.218197
0.217347
0.216018
0.214109
0.211509
0.208074
0.203703
0.198253
0.191727
0.184023
0.175377
0.165635
0.155569
0.143979
0.21912
0.218831
0.218143
0.217042
0.215429
0.213181
0.210139
0.206183
0.201139
0.194994
0.187591
0.179185
0.169506
0.159518
0.147584
0.219667
0.219445
0.218915
0.218041
0.216721
0.214824
0.212178
0.208649
0.204028
0.198289
0.191212
0.183083
0.17349
0.163627
0.151327
0.220194
0.220038
0.219662
0.219009
0.217979
0.216432
0.214185
0.211089
0.206906
0.201595
0.194872
0.187057
0.177572
0.167885
0.155196
0.2207
0.220608
0.220382
0.219945
0.219199
0.217998
0.216149
0.213492
0.209759
0.204896
0.198554
0.191087
0.181737
0.172277
0.159176
0.221184
0.221153
0.221073
0.220846
0.220378
0.219519
0.218066
0.21585
0.212577
0.20818
0.202243
0.195159
0.185969
0.176789
0.163256
0.221646
0.221674
0.221735
0.221712
0.221515
0.22099
0.21993
0.218156
0.21535
0.211433
0.205925
0.199256
0.190255
0.181405
0.167422
0.222086
0.222171
0.222367
0.22254
0.222607
0.222409
0.221737
0.220403
0.218068
0.214643
0.209587
0.203362
0.194584
0.186106
0.171666
0.222504
0.222643
0.22297
0.223332
0.108005
0.103422
0.0987488
0.0939797
0.089114
0.0841582
0.0791207
0.0740097
0.0688339
0.0636022
0.0583244
0.108381
0.103809
0.0991413
0.0943765
0.0895101
0.084547
0.0794955
0.0743641
0.0691614
0.0638969
0.0585806
0.109076
0.104472
0.099764
0.0949618
0.0900553
0.0850469
0.0799451
0.0747587
0.0694969
0.0641691
0.0587856
0.110062
0.105385
0.100598
0.0957248
0.0907461
0.0856606
0.0804776
0.0752067
0.0698572
0.0644386
0.0589615
0.111322
0.106537
0.101636
0.0966616
0.0915823
0.0863919
0.0811004
0.0757186
0.0702558
0.0647217
0.0591272
0.112841
0.107916
0.102868
0.0977639
0.0925575
0.087236
0.0818105
0.0762931
0.0706934
0.065021
0.059287
0.114611
0.109514
0.104286
0.0990268
0.0936686
0.0881913
0.082608
0.076932
0.0711732
0.0653411
0.0594468
0.116625
0.111325
0.105887
0.100447
0.0949139
0.0892575
0.0834937
0.0776375
0.0716985
0.0656865
0.0596124
0.118877
0.113344
0.107666
0.102024
0.0962926
0.0904346
0.0844687
0.0784116
0.0722727
0.0660613
0.0597889
0.121363
0.115566
0.10962
0.103754
0.097804
0.0917229
0.0855343
0.0792566
0.0728985
0.0664694
0.0599808
0.124079
0.117988
0.111747
0.105637
0.0994476
0.0931226
0.0866916
0.0801743
0.0735787
0.0669141
0.0601923
0.127023
0.120606
0.114044
0.107671
0.101223
0.0946339
0.0879414
0.0811664
0.0743157
0.0673985
0.0604269
0.053414
0.130189
0.123413
0.116507
0.109855
0.103129
0.0962564
0.0892845
0.0822344
0.0751116
0.0679253
0.060688
0.053413
0.133575
0.126405
0.119132
0.112188
0.105164
0.0979898
0.0907214
0.0833795
0.0759681
0.0684969
0.0609786
0.0534266
0.137175
0.129573
0.121916
0.114666
0.107327
0.099833
0.092252
0.0846024
0.0768867
0.0691152
0.0613011
0.0534578
0.140983
0.132911
0.124854
0.117287
0.109615
0.101785
0.0938758
0.0859033
0.0778684
0.069782
0.0616578
0.0535094
0.144993
0.136407
0.12794
0.120047
0.112025
0.103843
0.0955923
0.0872824
0.0789138
0.0704986
0.0620505
0.0535835
0.149198
0.140051
0.131169
0.122941
0.114553
0.106005
0.0973998
0.0887389
0.080023
0.0712657
0.0624807
0.0536823
0.153588
0.143829
0.134535
0.125965
0.117193
0.108268
0.0992967
0.0902718
0.081196
0.0720838
0.0629493
0.0538071
0.158153
0.147727
0.13803
0.129112
0.11994
0.110629
0.10128
0.0918796
0.082432
0.0729529
0.0634569
0.0539591
0.162879
0.15173
0.141648
0.132372
0.122789
0.113084
0.103348
0.09356
0.0837296
0.0738725
0.0640036
0.054139
0.167749
0.155821
0.145379
0.135736
0.125732
0.115627
0.105494
0.0953103
0.085087
0.0748414
0.0645889
0.0543467
0.172741
0.159982
0.149216
0.139194
0.128762
0.118253
0.107717
0.0971272
0.0865019
0.075858
0.065212
0.0545823
0.164202
0.153148
0.142735
0.131873
0.120958
0.11001
0.0990078
0.0879721
0.0769208
0.0658719
0.0548453
0.157159
0.146343
0.135054
0.123732
0.112366
0.100945
0.0894918
0.0780252
0.0665652
0.0551333
0.149983
0.138279
0.12655
0.114765
0.102922
0.0910463
0.0791589
0.0672817
0.055438
0.141555
0.12942
0.117214
0.104944
0.092641
0.0803262
0.0680247
0.0557621
0.132491
0.119843
0.107128
0.0943774
0.0816163
0.0688725
0.0561739
0.122613
0.109451
0.0962502
0.0830394
0.0698487
0.0567082
0.110717
0.0972234
0.0837046
0.0701945
0.0567262
)
;

boundaryField
{
    inlet
    {
        type            zeroGradient;
    }
    outlet
    {
        type            fixedValue;
        value           nonuniform 0();
    }
    cylinder
    {
        type            zeroGradient;
    }
    top
    {
        type            symmetryPlane;
    }
    bottom
    {
        type            symmetryPlane;
    }
    defaultFaces
    {
        type            empty;
    }
    procBoundary0to1
    {
        type            processor;
        value           nonuniform List<scalar> 
26
(
0.0530106
0.0532232
0.0533572
0.053437
0.0534836
0.0535029
0.0535023
0.0534887
0.053468
0.0534455
0.0534261
0.0534261
0.0463732
0.0461139
0.0458548
0.0455996
0.0453512
0.0451125
0.0448859
0.0446734
0.0444764
0.0442963
0.0441335
0.0439886
0.0438619
0.043752
)
;
    }
    procBoundary0to4
    {
        type            processor;
        value           nonuniform List<scalar> 
35
(
0.115282
0.100626
0.0858778
0.0858778
0.223653
0.223775
0.223483
0.222585
0.220725
0.217801
0.213217
0.207461
0.198942
0.190874
0.175976
0.2229
0.223092
0.223543
0.223653
0.224086
0.175976
0.177827
0.177827
0.168466
0.168466
0.161213
0.161213
0.153662
0.153662
0.145053
0.145053
0.135701
0.135701
0.124152
0.124152
)
;
    }
    procBoundary0to5
    {
        type            processor;
        value           nonuniform List<scalar> 8(0.0553565 0.056304 0.056304 0.0436523 0.0435648 0.0435489 0.0436483 0.0433323);
    }
}


// ************************************************************************* //
