/*--------------------------------*- C++ -*----------------------------------*\
  =========                 |
  \\      /  F ield         | OpenFOAM: The Open Source CFD Toolbox
   \\    /   O peration     | Website:  https://openfoam.org
    \\  /    A nd           | Version:  7
     \\/     M anipulation  |
\*---------------------------------------------------------------------------*/
FoamFile
{
    version     2.0;
    format      ascii;
    class       volVectorField;
    location    "30";
    object      U;
}
// * * * * * * * * * * * * * * * * * * * * * * * * * * * * * * * * * * * * * //

dimensions      [0 1 -1 0 0 0 0];

internalField   nonuniform List<vector> 
2625
(
(0.0854644 -0.00739743 -9.61174e-21)
(0.101491 -0.00796748 -1.04974e-20)
(0.11825 -0.00848602 2.09435e-21)
(0.135623 -0.00893777 -4.29551e-21)
(0.153406 -0.00929122 3.40926e-21)
(0.171492 -0.00951604 -5.02048e-21)
(0.189285 -0.0095064 2.12408e-21)
(0.207034 -0.00935526 3.49193e-21)
(0.087552 -0.0123095 1.05602e-20)
(0.103794 -0.0132547 1.19454e-20)
(0.120768 -0.014114 3.44007e-21)
(0.138357 -0.0148622 9.06307e-21)
(0.156352 -0.0154469 -1.27346e-20)
(0.174658 -0.015817 -8.7738e-21)
(0.192633 -0.0157982 1.13067e-20)
(0.210671 -0.0155372 2.26075e-21)
(0.0906795 -0.0171923 -4.78447e-21)
(0.107242 -0.0185052 -2.25726e-20)
(0.124538 -0.0196981 -1.64373e-20)
(0.14245 -0.0207354 8.12431e-21)
(0.160763 -0.0215448 5.48982e-21)
(0.179397 -0.0220536 5.85888e-21)
(0.197641 -0.0220214 -1.67588e-20)
(0.21611 -0.0216371 -8.97175e-21)
(0.0948424 -0.022034 1.08099e-20)
(0.111832 -0.0237045 3.21072e-20)
(0.129553 -0.0252206 2.24064e-20)
(0.147893 -0.0265371 -1.57613e-20)
(0.166626 -0.027562 -8.38229e-21)
(0.185694 -0.0282 2.21828e-20)
(0.204295 -0.028149 6.96973e-21)
(0.223333 -0.0276225 -2.63893e-21)
(0.100035 -0.0268228 -1.08235e-20)
(0.117553 -0.0288378 -2.06765e-21)
(0.135804 -0.0306641 -1.24262e-20)
(0.154674 -0.0322471 -5.10633e-21)
(0.173927 -0.0334757 1.45846e-20)
(0.193533 -0.034231 -1.4258e-20)
(0.212574 -0.034154 1.59399e-20)
(0.232315 -0.0334615 1.51233e-20)
(0.106248 -0.031547 1.07282e-20)
(0.124397 -0.0338904 6.88405e-21)
(0.143277 -0.0360111 -1.63938e-20)
(0.162777 -0.037845 1.68188e-20)
(0.182647 -0.0392633 -1.4824e-20)
(0.202891 -0.0401214 1.04784e-20)
(0.222453 -0.04001 -7.35831e-21)
(0.243024 -0.0391225 -1.88654e-20)
(0.113474 -0.0361944 2.14169e-21)
(0.132351 -0.0388478 -4.85086e-21)
(0.151958 -0.0412442 2.15366e-20)
(0.172184 -0.0433109 -1.42856e-23)
(0.192765 -0.0449024 2.77362e-21)
(0.213743 -0.0458463 -3.98173e-21)
(0.2339 -0.0456911 -2.28924e-20)
(0.255424 -0.0445751 1.37176e-20)
(0.121702 -0.0407533 -2.08895e-21)
(0.141402 -0.0436951 3.86219e-20)
(0.161829 -0.0463461 -3.95422e-21)
(0.182874 -0.0486249 -2.20415e-20)
(0.204254 -0.0503707 -4.38749e-21)
(0.226056 -0.0513814 -9.8002e-21)
(0.246881 -0.0511719 -2.02468e-21)
(0.269469 -0.0497894 -9.96108e-21)
(0.130919 -0.0452113 -5.38629e-20)
(0.151534 -0.0484177 -1.60971e-20)
(0.17287 -0.0512995 -1.82432e-21)
(0.194821 -0.0537671 6.30693e-21)
(0.217085 -0.0556463 2.38323e-20)
(0.239796 -0.0567026 -1.49058e-20)
(0.261353 -0.0564274 3.51823e-20)
(0.285111 -0.0547365 2.55947e-20)
(0.162728 -0.0530009 -2.0764e-20)
(0.185059 -0.0560873 -3.58447e-21)
(0.207999 -0.0587182 2.82736e-20)
(0.231225 -0.0607078 8.90447e-21)
(0.254923 -0.0617864 1.94504e-20)
(0.277273 -0.0614337 -2.91078e-20)
(0.302293 -0.059389 -1.52745e-20)
(0.174965 -0.0574301 -3.09648e-20)
(0.198371 -0.0606925 -2.26852e-20)
(0.222377 -0.0634589 -2.74672e-20)
(0.246636 -0.065534 -5.43986e-20)
(0.271393 -0.0666098 1.37558e-20)
(0.294588 -0.0661674 -4.6142e-20)
(0.320953 -0.0637206 3.6836e-20)
(0.188222 -0.0616904 -1.9687e-21)
(0.212777 -0.0650981 4.9766e-20)
(0.23792 -0.0679702 2.84731e-20)
(0.263278 -0.0701043 9.96705e-20)
(0.289158 -0.0711507 -5.24079e-20)
(0.313243 -0.0706062 3.46798e-20)
(0.341024 -0.0677065 -5.88742e-20)
(0.202476 -0.0657674 4.75518e-20)
(0.228248 -0.0692876 -6.44187e-20)
(0.254593 -0.0722335 3.24242e-20)
(0.281108 -0.0743984 -6.087e-20)
(0.308166 -0.0753875 1.62717e-20)
(0.333178 -0.0747286 -2.68972e-20)
(0.36243 -0.0713239 1.87474e-20)
(0.217701 -0.0696464 -3.62111e-20)
(0.244752 -0.0732446 7.24055e-20)
(0.272354 -0.0762307 -5.82571e-20)
(0.300076 -0.0783969 -3.80525e-20)
(0.328359 -0.0792995 1.10448e-20)
(0.354329 -0.0785142 3.41572e-20)
(0.385095 -0.0745516 5.08485e-20)
(0.233867 -0.0733129 2.60633e-20)
(0.262253 -0.0769528 -5.61457e-21)
(0.291162 -0.0799441 5.76456e-20)
(0.320132 -0.0820809 3.12753e-20)
(0.349676 -0.082867 6.04523e-21)
(0.376625 -0.0819438 -1.91449e-20)
(0.408931 -0.0773703 -7.85683e-21)
(0.250946 -0.0767526 -2.71737e-20)
(0.280714 -0.0803964 -1.31393e-19)
(0.310971 -0.0833564 7.36458e-21)
(0.341222 -0.0854321 -4.69828e-21)
(0.372054 -0.0860711 -3.94863e-20)
(0.399993 -0.0849995 2.48869e-20)
(0.433852 -0.0797632 -2.45817e-20)
(0.268905 -0.0799513 -2.00853e-20)
(0.300094 -0.0835599 3.63129e-20)
(0.331731 -0.0864512 -7.68725e-20)
(0.363287 -0.0884334 7.1762e-21)
(0.395423 -0.0888944 3.38905e-20)
(0.424355 -0.0876647 -9.34724e-22)
(0.459761 -0.0817156 -2.59929e-20)
(0.287709 -0.0828948 1.16777e-19)
(0.320351 -0.0864284 8.6161e-20)
(0.353392 -0.0892124 9.26278e-20)
(0.386267 -0.0910682 -8.04551e-21)
(0.419711 -0.0913203 4.93412e-21)
(0.44963 -0.0899242 -2.78226e-20)
(0.486562 -0.0832151 2.51723e-20)
(0.307322 -0.0855695 -1.02852e-19)
(0.341441 -0.0889872 -3.54594e-20)
(0.375899 -0.0916251 -1.41195e-19)
(0.410096 -0.0933213 -1.2077e-20)
(0.444843 -0.0933337 4.51253e-20)
(0.475732 -0.0917643 6.96123e-21)
(0.514153 -0.0842519 -7.7108e-21)
(0.363316 -0.0912225 -3.05522e-20)
(0.399196 -0.0936749 1.85543e-20)
(0.434709 -0.0951784 4.49369e-20)
(0.47074 -0.0949211 -3.98822e-20)
(0.502575 -0.093173 -3.03068e-20)
(0.542428 -0.084819 -5.7861e-20)
(0.385927 -0.0931209 -5.47514e-20)
(0.423222 -0.0953486 1.55398e-20)
(0.460036 -0.0966264 -2.50611e-20)
(0.49732 -0.0960703 -4.83834e-20)
(0.530066 -0.0941398 1.58626e-20)
(0.571281 -0.0849115 5.50811e-20)
(0.409222 -0.09467 1.06341e-19)
(0.447917 -0.0966342 2.22664e-20)
(0.486004 -0.0976538 4.1295e-22)
(0.5245 -0.0967709 5.68276e-20)
(0.558113 -0.0946562 5.36129e-20)
(0.600601 -0.0845275 1.05453e-21)
(0.433147 -0.095858 -8.91076e-20)
(0.473217 -0.0975205 7.30218e-21)
(0.51254 -0.0982504 3.91106e-20)
(0.552193 -0.0970142 -1.61115e-20)
(0.586621 -0.0947156 1.50007e-20)
(0.630278 -0.0836676 5.08585e-20)
(0.457647 -0.0966745 1.02181e-19)
(0.499055 -0.0979981 3.38653e-20)
(0.539567 -0.0984076 -2.40577e-20)
(0.580312 -0.0967935 5.38361e-21)
(0.615493 -0.094313 -3.8638e-20)
(0.660202 -0.0823349 -5.25229e-20)
(0.482664 -0.0971096 -4.17563e-20)
(0.525364 -0.0980588 7.14508e-21)
(0.567008 -0.0981186 4.71939e-20)
(0.608766 -0.096104 -7.62244e-20)
(0.644635 -0.0934456 -6.93297e-20)
(0.690261 -0.0805347 -2.45557e-20)
(0.552075 -0.0976961 -8.24143e-20)
(0.594784 -0.0973784 -4.60828e-20)
(0.637467 -0.0949431 1.93491e-20)
(0.673948 -0.0921124 1.40331e-20)
(0.720345 -0.0782748 -1.2964e-20)
(0.579117 -0.0969053 5.77902e-20)
(0.622815 -0.096184 2.55926e-20)
(0.666324 -0.0933104 1.60202e-19)
(0.703338 -0.0903145 -2.28519e-20)
(0.750346 -0.0755649 7.80776e-20)
(0.606419 -0.0956836 3.05018e-20)
(0.651021 -0.0945346 9.73066e-21)
(0.695247 -0.0912079 -1.12904e-19)
(0.732711 -0.0880546 1.05205e-19)
(0.780157 -0.0724164 -4.86359e-20)
(0.633908 -0.0940301 -4.6873e-20)
(0.679324 -0.0924315 2.48106e-20)
(0.724148 -0.0886399 8.77932e-21)
(0.761976 -0.0853372 -7.01323e-20)
(0.809675 -0.0688421 3.92072e-20)
(0.661512 -0.0919464 6.43832e-20)
(0.707643 -0.0898787 -1.25988e-19)
(0.752938 -0.0856139 2.0419e-21)
(0.791046 -0.082168 1.31211e-19)
(0.838799 -0.064856 2.58403e-20)
(0.7359 -0.0868826 2.22925e-19)
(0.781533 -0.0821398 -8.28757e-20)
(0.819841 -0.0785536 -1.38896e-19)
(0.86743 -0.0604728 -3.70236e-20)
(0.764019 -0.0834526 -1.42665e-19)
(0.80985 -0.0782312 1.11003e-19)
(0.848285 -0.0745007 5.03735e-20)
(0.895476 -0.0557076 6.16151e-21)
(0.791924 -0.079601 -4.78629e-20)
(0.837813 -0.0739055 -2.22304e-20)
(0.876311 -0.0700151 4.43847e-21)
(0.922841 -0.0505753 -3.17113e-20)
(0.819542 -0.0753439 1.39131e-19)
(0.865349 -0.0691849 -1.17919e-20)
(0.903864 -0.0651014 8.23206e-20)
(0.949437 -0.0450943 2.64907e-20)
(0.892389 -0.0640973 5.82289e-20)
(0.9309 -0.0597632 -9.88272e-20)
(0.97518 -0.0392912 -3.46836e-20)
(0.918875 -0.0586782 -4.60103e-20)
(0.957387 -0.0540005 -9.68388e-20)
(0.999982 -0.0331807 3.43791e-20)
(0.944752 -0.0529727 -1.00913e-19)
(0.983297 -0.0477929 4.49687e-20)
(1.0237 -0.0267014 3.83763e-20)
(1.00864 -0.0410977 1.48083e-19)
(1.04617 -0.0198271 -2.67496e-20)
(1.03353 -0.0339718 -1.43634e-19)
(1.06778 -0.0133379 8.15579e-22)
(1.05796 -0.0268155 1.34143e-19)
(1.09095 -0.00919268 2.73339e-21)
(1.11293 -0.00809822 3.15773e-20)
(1.13309 -0.00619811 -5.11221e-20)
(0.31908 -0.00205544 1.16433e-22)
(0.326175 -0.00202971 -1.68309e-22)
(0.333285 -0.00200472 -2.69547e-23)
(0.340412 -0.00198022 1.42693e-22)
(0.347555 -0.00195598 -1.17448e-22)
(0.354715 -0.00193183 4.79214e-23)
(0.36189 -0.00190764 7.47559e-23)
(0.369079 -0.00188328 -6.6931e-23)
(0.37628 -0.00185869 4.12136e-23)
(0.383491 -0.00183378 -2.57791e-23)
(0.390709 -0.00180852 -5.8901e-23)
(0.397932 -0.00178289 6.49342e-23)
(0.405156 -0.00175687 3.02685e-24)
(0.412378 -0.00173045 -4.86203e-23)
(0.419596 -0.00170366 2.64368e-23)
(0.426806 -0.00167651 1.10623e-22)
(0.434004 -0.00164901 -7.82932e-23)
(0.441188 -0.00162121 4.73929e-23)
(0.448355 -0.00159313 -9.11502e-23)
(0.4555 -0.00156482 1.2624e-22)
(0.462621 -0.00153631 -2.81928e-23)
(0.469714 -0.00150763 3.37855e-23)
(0.476778 -0.00147884 8.28343e-25)
(0.483808 -0.00144997 -6.58379e-23)
(0.490803 -0.00142106 -1.4542e-23)
(0.497759 -0.00139214 1.12168e-23)
(0.504674 -0.00136327 -3.04199e-23)
(0.511545 -0.00133447 1.30035e-23)
(0.518371 -0.00130578 3.0397e-23)
(0.525148 -0.00127723 -8.0062e-23)
(0.531876 -0.00124886 1.57031e-23)
(0.219087 -0.00861319 3.96004e-22)
(0.226956 -0.00821275 -1.39907e-21)
(0.234616 -0.00789092 1.68495e-21)
(0.24212 -0.00761752 -1.25537e-21)
(0.249487 -0.00738549 -5.86858e-22)
(0.256749 -0.00718734 6.92796e-22)
(0.263934 -0.00701622 -7.78272e-22)
(0.271062 -0.00686689 7.91155e-22)
(0.27815 -0.00673516 3.64462e-22)
(0.285211 -0.0066176 5.37769e-22)
(0.292257 -0.00651142 -4.35082e-22)
(0.299298 -0.00641431 -6.87682e-22)
(0.306339 -0.00632437 7.13319e-22)
(0.313386 -0.00624 -8.78414e-22)
(0.320445 -0.00615988 2.40237e-22)
(0.327517 -0.00608289 2.60916e-22)
(0.334605 -0.0060081 -2.20652e-22)
(0.341709 -0.00593475 -2.44879e-22)
(0.348831 -0.00586218 3.00371e-22)
(0.355969 -0.00578989 3.26272e-22)
(0.363123 -0.00571744 -5.6496e-22)
(0.370291 -0.0056445 2.29517e-22)
(0.377471 -0.00557083 -1.29129e-22)
(0.384662 -0.00549623 -1.96459e-22)
(0.391859 -0.00542057 2.38437e-22)
(0.399061 -0.00534378 2.1234e-22)
(0.406265 -0.00526582 -1.00142e-22)
(0.413468 -0.00518668 -1.04519e-22)
(0.420665 -0.0051064 3.2721e-22)
(0.427855 -0.00502504 -1.47046e-22)
(0.435034 -0.00494266 1.93935e-22)
(0.442198 -0.00485935 -6.00342e-22)
(0.449345 -0.00477522 2.35506e-22)
(0.45647 -0.00469038 -2.28393e-22)
(0.463572 -0.00460493 2.74509e-22)
(0.470647 -0.00451901 -6.96752e-23)
(0.477691 -0.00443273 2.83811e-22)
(0.484703 -0.00434621 -1.12783e-22)
(0.491679 -0.00425957 9.01179e-23)
(0.498617 -0.00417293 -1.92745e-22)
(0.505513 -0.0040864 3.60759e-23)
(0.512367 -0.0040001 -1.66255e-22)
(0.519175 -0.00391412 -2.03423e-23)
(0.525935 -0.00382857 2.91894e-22)
(0.532646 -0.00374355 -1.74961e-22)
(0.222701 -0.0143048 1.76126e-21)
(0.230457 -0.0136439 -9.9991e-22)
(0.238027 -0.0131119 2.33865e-21)
(0.245455 -0.0126594 -1.7717e-21)
(0.252751 -0.0122753 -6.63409e-23)
(0.259947 -0.0119472 -1.67623e-22)
(0.26707 -0.0116638 -1.77019e-21)
(0.274139 -0.0114165 2.70517e-22)
(0.281171 -0.0111983 2.03871e-21)
(0.288179 -0.0110035 -1.14957e-21)
(0.295174 -0.0108275 1.70873e-23)
(0.302164 -0.0106666 7.51754e-22)
(0.309157 -0.0105176 8.85981e-22)
(0.316157 -0.0103777 -1.06675e-21)
(0.323169 -0.0102449 6.69235e-22)
(0.330196 -0.0101172 6.13042e-22)
(0.33724 -0.00999315 -5.10019e-22)
(0.3443 -0.00987144 -2.8251e-22)
(0.351379 -0.00975101 -3.18613e-22)
(0.358474 -0.00963099 7.5921e-23)
(0.365586 -0.00951069 -8.2628e-22)
(0.372712 -0.00938956 1.56412e-21)
(0.37985 -0.00926718 -2.2974e-22)
(0.386999 -0.00914323 -7.8328e-22)
(0.394156 -0.00901751 4.31852e-22)
(0.401317 -0.00888989 -9.67583e-22)
(0.40848 -0.00876031 8.28433e-22)
(0.415642 -0.00862876 2.52726e-22)
(0.4228 -0.00849531 -2.26229e-22)
(0.42995 -0.00836005 -2.59381e-23)
(0.437089 -0.00822308 -2.51674e-22)
(0.444214 -0.00808458 3.61218e-22)
(0.451322 -0.0079447 -3.24157e-23)
(0.458408 -0.00780363 2.63275e-22)
(0.465472 -0.00766155 -1.81713e-22)
(0.472508 -0.00751868 -3.3648e-22)
(0.479515 -0.0073752 2.59368e-22)
(0.48649 -0.00723133 -3.46151e-22)
(0.493429 -0.00708725 6.65797e-23)
(0.50033 -0.00694317 1.75862e-22)
(0.50719 -0.00679928 -6.09876e-23)
(0.514008 -0.00665575 -2.69095e-22)
(0.520781 -0.00651276 2.99578e-22)
(0.527507 -0.00637049 -1.3238e-22)
(0.534183 -0.00622908 -1.27702e-22)
(0.228107 -0.0199209 6.22887e-22)
(0.235693 -0.0190089 -9.22251e-22)
(0.243128 -0.0182734 -2.24015e-21)
(0.250443 -0.0176467 -6.94662e-22)
(0.257633 -0.0171145 3.1276e-21)
(0.26473 -0.0166597 -2.54534e-21)
(0.27176 -0.0162667 2.07931e-21)
(0.278742 -0.0159236 2.61846e-22)
(0.28569 -0.0156208 -2.14412e-22)
(0.292618 -0.0153506 1.26911e-22)
(0.299536 -0.0151065 -2.02012e-21)
(0.306452 -0.0148831 1.78316e-21)
(0.313372 -0.0146762 -3.82111e-22)
(0.320302 -0.014482 1.11961e-21)
(0.327245 -0.0142975 -9.03996e-22)
(0.334204 -0.0141201 -2.30508e-22)
(0.341181 -0.0139477 3.90295e-22)
(0.348176 -0.0137784 2.69106e-22)
(0.35519 -0.0136109 -1.61802e-21)
(0.362221 -0.0134439 5.82164e-22)
(0.369269 -0.0132764 8.52397e-22)
(0.376333 -0.0131077 -2.72123e-22)
(0.383409 -0.0129372 -7.84384e-23)
(0.390496 -0.0127645 -2.17691e-22)
(0.397591 -0.0125893 4.67647e-22)
(0.404691 -0.0124114 -4.11335e-22)
(0.411794 -0.0122307 3.42323e-22)
(0.418895 -0.0120473 -9.19955e-23)
(0.425993 -0.0118612 -4.06951e-23)
(0.433083 -0.0116726 2.16044e-23)
(0.440163 -0.0114815 3.28993e-22)
(0.447229 -0.0112883 -2.4548e-22)
(0.454278 -0.0110932 -6.81474e-22)
(0.461307 -0.0108964 8.83799e-22)
(0.468313 -0.0106982 -8.0051e-22)
(0.475293 -0.0104989 7.36399e-22)
(0.482243 -0.0102987 -4.70805e-22)
(0.489162 -0.0100979 7.76354e-22)
(0.496046 -0.00989692 -6.57167e-22)
(0.502892 -0.00969587 3.02296e-22)
(0.509699 -0.00949509 2.80077e-22)
(0.516464 -0.0092948 -2.73965e-22)
(0.523184 -0.00909527 1.98601e-22)
(0.529857 -0.00889673 -1.14864e-22)
(0.536482 -0.0086994 3.73136e-22)
(0.235284 -0.0254315 1.57598e-21)
(0.242646 -0.0242817 -5.34824e-21)
(0.249902 -0.0233518 2.11593e-21)
(0.257067 -0.0225576 5.55413e-22)
(0.264116 -0.0218828 -2.4971e-21)
(0.271082 -0.0213058 1.02533e-21)
(0.277989 -0.020807 4.17717e-22)
(0.284855 -0.0203714 -1.34618e-22)
(0.291692 -0.0199869 1.19468e-21)
(0.298514 -0.0196436 1.10375e-21)
(0.305329 -0.0193335 8.17533e-22)
(0.312145 -0.0190497 -2.80236e-21)
(0.318969 -0.0187867 -2.99185e-22)
(0.325805 -0.0185397 -1.4228e-21)
(0.332657 -0.018305 1.85536e-21)
(0.339526 -0.0180793 -8.39021e-23)
(0.346415 -0.0178597 1.39797e-21)
(0.353323 -0.0176441 -1.31467e-21)
(0.360251 -0.0174305 -6.89503e-22)
(0.367197 -0.0172175 5.15497e-22)
(0.374161 -0.0170037 -5.87754e-22)
(0.381141 -0.0167884 5.54047e-22)
(0.388135 -0.0165706 1.74102e-22)
(0.395139 -0.01635 -2.58891e-22)
(0.402153 -0.0161261 2.22858e-22)
(0.409172 -0.0158986 3.42694e-22)
(0.416194 -0.0156676 1.27262e-22)
(0.423215 -0.0154331 2.39398e-22)
(0.430233 -0.015195 -6.84148e-22)
(0.437244 -0.0149537 -7.21485e-23)
(0.444245 -0.0147093 -3.34732e-22)
(0.451233 -0.0144621 2.92498e-22)
(0.458205 -0.0142125 7.91479e-22)
(0.465157 -0.0139606 -1.17296e-21)
(0.472087 -0.013707 7.03806e-22)
(0.478991 -0.0134519 -2.37664e-23)
(0.485867 -0.0131957 -8.38105e-23)
(0.492711 -0.0129388 2.05355e-24)
(0.499522 -0.0126815 3.53832e-22)
(0.506296 -0.0124241 -5.50624e-22)
(0.513031 -0.0121671 4.6455e-22)
(0.519724 -0.0119107 -1.98952e-22)
(0.526375 -0.0116553 6.72111e-23)
(0.532979 -0.0114011 -1.14675e-22)
(0.539536 -0.0111485 2.33525e-22)
(0.244208 -0.0308072 -1.46849e-21)
(0.251292 -0.0294365 8.69666e-22)
(0.258326 -0.0283238 -2.66825e-21)
(0.265305 -0.0273706 4.61743e-22)
(0.272178 -0.0265603 3.18966e-21)
(0.278981 -0.025867 -3.20215e-21)
(0.285735 -0.0252672 -4.06108e-22)
(0.292456 -0.0247432 2.19501e-21)
(0.299155 -0.0242806 7.9176e-23)
(0.305845 -0.0238675 -8.84517e-22)
(0.312533 -0.0234941 4.41921e-21)
(0.319226 -0.0231523 -4.39083e-21)
(0.325931 -0.0228354 2.72608e-21)
(0.33265 -0.0225379 -2.34658e-21)
(0.339388 -0.0222548 3.95984e-22)
(0.346145 -0.0219824 -9.42406e-22)
(0.352924 -0.0217173 2.95499e-21)
(0.359724 -0.0214567 4.86163e-22)
(0.366545 -0.0211985 -2.19455e-21)
(0.373386 -0.0209407 7.9489e-22)
(0.380245 -0.020682 -2.8702e-22)
(0.387121 -0.0204211 -2.26834e-21)
(0.394012 -0.0201572 2.83024e-21)
(0.400914 -0.0198896 -2.09845e-21)
(0.407826 -0.019618 6.11918e-22)
(0.414744 -0.019342 9.267e-23)
(0.421666 -0.0190616 -4.0608e-22)
(0.428588 -0.0187769 1.76447e-22)
(0.435506 -0.0184878 1.65808e-22)
(0.442419 -0.0181948 1.25506e-22)
(0.449322 -0.0178979 1.38621e-21)
(0.456213 -0.0175977 -8.11949e-22)
(0.463089 -0.0172943 -4.31926e-22)
(0.469945 -0.0169884 6.39791e-22)
(0.47678 -0.0166802 -6.0299e-22)
(0.48359 -0.0163702 -6.69729e-22)
(0.490373 -0.0160589 1.23885e-21)
(0.497125 -0.0157466 -1.23447e-21)
(0.503844 -0.0154339 2.28129e-22)
(0.510528 -0.0151211 4.04804e-22)
(0.517174 -0.0148087 2.37466e-22)
(0.52378 -0.0144971 -3.65724e-22)
(0.530344 -0.0141866 1.07998e-22)
(0.536862 -0.0138776 -1.26641e-22)
(0.543335 -0.0135705 -1.12889e-22)
(0.254845 -0.0360192 4.01058e-22)
(0.2616 -0.0344476 2.21896e-21)
(0.268372 -0.0331663 -2.52995e-21)
(0.275128 -0.0320645 2.90717e-21)
(0.281793 -0.0311272 -1.26534e-21)
(0.288401 -0.0303247 -2.99667e-22)
(0.294973 -0.02963 -1.55086e-21)
(0.30152 -0.0290227 -1.1673e-21)
(0.308055 -0.0284863 -6.05073e-22)
(0.314587 -0.0280071 -4.06905e-22)
(0.321123 -0.0275739 1.74811e-21)
(0.32767 -0.0271773 -1.33771e-21)
(0.334232 -0.0268094 3.64169e-21)
(0.340812 -0.0264636 -3.57032e-22)
(0.347414 -0.0261346 -1.8456e-21)
(0.354038 -0.0258176 -1.58518e-21)
(0.360686 -0.0255088 2.16954e-21)
(0.367357 -0.0252051 -2.28851e-21)
(0.374051 -0.0249039 3.19119e-22)
(0.380765 -0.0246029 3.61734e-22)
(0.3875 -0.0243006 9.03217e-22)
(0.394253 -0.0239955 -5.97085e-22)
(0.40102 -0.0236867 -6.09804e-22)
(0.407801 -0.0233735 1.27183e-21)
(0.414592 -0.0230554 -2.21764e-22)
(0.421389 -0.0227321 7.07978e-22)
(0.428191 -0.0224035 -8.48605e-22)
(0.434994 -0.0220697 1.67589e-21)
(0.441795 -0.0217308 2.35415e-22)
(0.44859 -0.0213871 -2.5221e-21)
(0.455377 -0.0210389 8.06462e-22)
(0.462152 -0.0206867 2.52749e-22)
(0.468912 -0.0203308 -4.84705e-22)
(0.475655 -0.0199718 2.88433e-22)
(0.482376 -0.0196102 -8.80584e-22)
(0.489075 -0.0192464 4.32815e-22)
(0.495746 -0.018881 6.71124e-22)
(0.502389 -0.0185145 -9.71882e-22)
(0.509 -0.0181474 9.42643e-22)
(0.515576 -0.0177803 -6.36585e-22)
(0.522116 -0.0174135 1.84164e-22)
(0.528617 -0.0170476 7.40463e-22)
(0.535077 -0.0166831 -8.94443e-23)
(0.541494 -0.0163203 -3.82849e-22)
(0.547866 -0.0159596 -5.54675e-22)
(0.267159 -0.0410391 -1.46102e-21)
(0.273536 -0.0392899 1.17253e-21)
(0.280004 -0.0378564 2.04705e-21)
(0.286503 -0.0366182 1.01842e-21)
(0.292926 -0.0355642 -4.13175e-21)
(0.299308 -0.0346609 7.99563e-22)
(0.305669 -0.0338781 -4.28111e-22)
(0.312017 -0.0331935 1.56943e-21)
(0.318361 -0.0325886 -1.51181e-21)
(0.32471 -0.0320481 5.16403e-21)
(0.331071 -0.0315591 -4.25932e-21)
(0.337448 -0.0311112 2.29635e-21)
(0.343844 -0.0306955 4.58305e-22)
(0.350264 -0.0303045 4.02427e-22)
(0.356709 -0.0299321 -2.32175e-21)
(0.363179 -0.029573 2.03805e-21)
(0.369675 -0.0292229 -6.79965e-22)
(0.376197 -0.0288782 -7.94971e-23)
(0.382743 -0.0285358 4.01376e-22)
(0.389312 -0.0281935 -1.84359e-21)
(0.395902 -0.0278493 -4.68851e-22)
(0.402511 -0.0275017 1.57299e-21)
(0.409137 -0.0271496 2.56859e-22)
(0.415776 -0.0267922 -1.6828e-21)
(0.422426 -0.0264291 -2.58927e-22)
(0.429085 -0.0260598 1.47e-21)
(0.435748 -0.0256844 -7.67429e-22)
(0.442413 -0.0253029 -2.8616e-22)
(0.449077 -0.0249154 1.28598e-21)
(0.455736 -0.0245224 7.02723e-22)
(0.462388 -0.0241242 -5.4861e-22)
(0.469029 -0.0237213 4.9326e-23)
(0.475656 -0.0233142 8.60383e-22)
(0.482267 -0.0229034 -4.70512e-22)
(0.488858 -0.0224895 -9.97109e-23)
(0.495426 -0.0220732 -1.13463e-21)
(0.50197 -0.021655 9.06146e-22)
(0.508485 -0.0212355 -1.4444e-21)
(0.514971 -0.0208153 5.74228e-22)
(0.521423 -0.020395 3.8359e-23)
(0.52784 -0.0199751 4.23247e-22)
(0.53422 -0.0195562 -1.02807e-21)
(0.54056 -0.0191387 1.22738e-21)
(0.546859 -0.0187233 -1.43644e-23)
(0.553115 -0.0183102 -1.22739e-22)
(0.281103 -0.0458394 2.37335e-23)
(0.287056 -0.0439389 -6.65293e-21)
(0.293181 -0.0423718 -4.25999e-21)
(0.29939 -0.0410111 8.30053e-21)
(0.30554 -0.039852 1.71588e-21)
(0.311667 -0.0388575 -1.1548e-20)
(0.317788 -0.037995 7.92903e-21)
(0.323909 -0.0372401 3.31721e-23)
(0.330038 -0.0365727 -1.47657e-21)
(0.33618 -0.0359759 2.19879e-21)
(0.342342 -0.0354359 -2.19097e-21)
(0.348526 -0.034941 2.14403e-21)
(0.354736 -0.0344812 7.09294e-22)
(0.360974 -0.0340485 -1.83266e-21)
(0.36724 -0.0336358 -2.44576e-21)
(0.373536 -0.0332374 3.53548e-21)
(0.379861 -0.0328485 -2.77437e-21)
(0.386213 -0.0324651 3.05287e-21)
(0.392592 -0.0320839 -5.61029e-22)
(0.398996 -0.0317022 1.12018e-21)
(0.405422 -0.031318 -2.11949e-21)
(0.411869 -0.0309298 8.1173e-22)
(0.418333 -0.0305361 -4.0406e-22)
(0.424813 -0.0301363 8.74372e-22)
(0.431304 -0.0297297 -6.62135e-22)
(0.437804 -0.0293162 -1.34571e-21)
(0.44431 -0.0288955 2.10415e-21)
(0.450819 -0.0284678 -1.87355e-21)
(0.457328 -0.0280333 4.13014e-22)
(0.463833 -0.0275925 -2.55289e-22)
(0.470332 -0.0271458 1.06095e-21)
(0.476821 -0.0266937 2.37494e-22)
(0.483298 -0.0262367 4.51216e-22)
(0.489759 -0.0257757 -1.30193e-21)
(0.496202 -0.0253111 -1.90418e-22)
(0.502624 -0.0248437 1.48376e-23)
(0.509022 -0.0243741 2.81208e-22)
(0.515394 -0.023903 3.91797e-22)
(0.521737 -0.0234311 2.14319e-22)
(0.528049 -0.022959 -6.72828e-22)
(0.534327 -0.0224873 8.36296e-22)
(0.54057 -0.0220167 -1.06673e-21)
(0.546775 -0.0215478 -1.49605e-22)
(0.55294 -0.021081 1.29431e-21)
(0.559064 -0.0206169 -2.92758e-22)
(0.296626 -0.0503936 -1.52141e-20)
(0.302112 -0.0483706 -2.13429e-21)
(0.307859 -0.0466906 9.50261e-21)
(0.313745 -0.0452232 1.39828e-21)
(0.319591 -0.043972 -2.81976e-21)
(0.325434 -0.0428973 4.48797e-22)
(0.331288 -0.0419642 4.64252e-21)
(0.337157 -0.0411468 -4.04082e-21)
(0.343046 -0.0404238 -3.0757e-22)
(0.348958 -0.0397769 4.82948e-22)
(0.354898 -0.0391912 -5.89395e-21)
(0.360868 -0.0386539 5.03105e-21)
(0.36687 -0.0381544 -4.43632e-21)
(0.372906 -0.0376836 3.27022e-21)
(0.378974 -0.0372342 4.75204e-21)
(0.385075 -0.0367997 -3.52369e-21)
(0.391209 -0.0363748 2.16923e-21)
(0.397373 -0.0359554 -7.64572e-22)
(0.403565 -0.0355378 -9.84359e-22)
(0.409785 -0.0351191 3.81905e-22)
(0.416029 -0.0346972 -4.99263e-21)
(0.422295 -0.0342703 3.45926e-21)
(0.42858 -0.0338371 -1.40093e-21)
(0.434881 -0.0333967 2.20636e-21)
(0.441195 -0.0329486 -7.62212e-22)
(0.447519 -0.0324925 -6.307e-22)
(0.45385 -0.0320283 1.18743e-21)
(0.460185 -0.0315562 -1.90933e-21)
(0.466521 -0.0310764 1.33204e-21)
(0.472854 -0.0305895 -9.61953e-22)
(0.479183 -0.0300959 1.58329e-21)
(0.485503 -0.0295963 -1.45536e-21)
(0.491812 -0.0290913 1.15493e-21)
(0.498107 -0.0285815 7.89731e-22)
(0.504385 -0.0280679 -1.21382e-21)
(0.510644 -0.027551 9.28935e-22)
(0.51688 -0.0270316 -1.01202e-22)
(0.523092 -0.0265106 -2.95804e-22)
(0.529277 -0.0259885 5.80017e-22)
(0.535433 -0.0254662 -1.85157e-22)
(0.541556 -0.0249444 -8.17194e-22)
(0.547647 -0.0244236 6.55906e-22)
(0.553701 -0.0239046 -2.96114e-22)
(0.559717 -0.023388 5.44035e-22)
(0.565695 -0.0228743 3.05459e-22)
(0.313672 -0.0546763 7.51993e-21)
(0.318652 -0.0525619 2.34248e-22)
(0.323985 -0.0507917 -7.85258e-21)
(0.329518 -0.0492347 2.71989e-21)
(0.335031 -0.047906 -6.93116e-22)
(0.340562 -0.0467633 5.38773e-21)
(0.346124 -0.0457698 -7.80319e-21)
(0.351716 -0.0448989 1.20586e-20)
(0.35734 -0.0441279 -3.30351e-21)
(0.363 -0.0434376 -6.3384e-21)
(0.368697 -0.0428121 9.38628e-21)
(0.374432 -0.0422378 -1.54052e-22)
(0.380206 -0.0417032 -9.54152e-21)
(0.386019 -0.0411987 4.98366e-21)
(0.39187 -0.0407163 -3.03715e-21)
(0.397758 -0.0402491 -1.81074e-21)
(0.403681 -0.0397916 4.11825e-22)
(0.409638 -0.0393391 7.10007e-21)
(0.415626 -0.0388878 -7.59933e-21)
(0.421644 -0.0384347 4.16778e-21)
(0.427687 -0.0379774 8.71584e-22)
(0.433754 -0.0375141 8.8988e-22)
(0.439841 -0.0370435 -1.6887e-21)
(0.445946 -0.0365647 1.74826e-22)
(0.452065 -0.0360771 -3.59283e-22)
(0.458196 -0.0355804 1.25589e-21)
(0.464335 -0.0350747 -3.71671e-21)
(0.470478 -0.0345601 1.63429e-21)
(0.476624 -0.034037 1.51141e-21)
(0.482769 -0.0335058 -1.25886e-21)
(0.48891 -0.0329673 8.01969e-22)
(0.495045 -0.032422 -2.00558e-21)
(0.50117 -0.0318707 -3.54745e-22)
(0.507282 -0.0313141 1.30698e-21)
(0.513379 -0.0307532 -4.61753e-23)
(0.519458 -0.0301886 4.22818e-22)
(0.525518 -0.0296213 -1.00176e-21)
(0.531554 -0.0290521 1.16625e-21)
(0.537565 -0.0284817 -2.62604e-22)
(0.543549 -0.0279109 -1.98141e-23)
(0.549504 -0.0273405 1.0479e-21)
(0.555426 -0.0267713 -1.3764e-21)
(0.561316 -0.026204 1.62899e-22)
(0.567169 -0.0256391 8.73389e-22)
(0.572986 -0.0250775 -4.15432e-22)
(0.332178 -0.0586632 -1.17886e-20)
(0.336615 -0.0564907 1.36878e-20)
(0.341502 -0.0546547 -1.4972e-20)
(0.346654 -0.0530268 7.22035e-21)
(0.351806 -0.0516364 7.94805e-21)
(0.356998 -0.0504391 -8.56726e-22)
(0.362243 -0.0493967 2.59067e-21)
(0.367535 -0.0484819 -1.6816e-21)
(0.372873 -0.0476714 -2.11919e-21)
(0.378259 -0.0469452 6.63699e-22)
(0.383693 -0.0462864 -8.71514e-21)
(0.389173 -0.0456808 8.44986e-21)
(0.394699 -0.0451164 -2.47035e-21)
(0.400271 -0.0445828 1.35992e-21)
(0.405885 -0.0440716 -1.03872e-21)
(0.411541 -0.0435756 -1.65669e-21)
(0.417237 -0.0430889 -1.32549e-21)
(0.422969 -0.0426065 -1.66424e-21)
(0.428735 -0.0421244 -5.86114e-22)
(0.434532 -0.0416397 -7.67381e-22)
(0.440358 -0.0411496 3.81907e-21)
(0.446209 -0.0406525 -4.089e-21)
(0.452081 -0.0401469 5.49275e-21)
(0.457973 -0.0396319 -2.16251e-21)
(0.46388 -0.039107 6.64604e-22)
(0.4698 -0.038572 1.89662e-21)
(0.47573 -0.0380269 -3.37605e-21)
(0.481666 -0.0374719 2.96369e-21)
(0.487605 -0.0369075 -1.84845e-21)
(0.493545 -0.0363343 -2.46814e-22)
(0.499483 -0.0357528 1.69285e-21)
(0.505415 -0.0351639 -2.04631e-21)
(0.51134 -0.0345683 -5.11844e-22)
(0.517254 -0.0339669 1.73313e-21)
(0.523155 -0.0333607 -5.78486e-22)
(0.52904 -0.0327505 8.53006e-22)
(0.534906 -0.0321372 -1.35712e-21)
(0.540752 -0.0315216 2.50192e-22)
(0.546575 -0.0309047 2.16878e-21)
(0.552373 -0.0302874 -1.79595e-21)
(0.558144 -0.0296704 1.44887e-21)
(0.563885 -0.0290546 -1.14273e-21)
(0.569595 -0.0284407 -1.12721e-22)
(0.575272 -0.0278294 2.94674e-22)
(0.580914 -0.0272216 2.28986e-22)
(0.352073 -0.0623316 1.31274e-20)
(0.355937 -0.0601359 -7.11655e-21)
(0.360349 -0.0582598 -3.43296e-21)
(0.365092 -0.0565813 2.7525e-21)
(0.369857 -0.0551464 7.9211e-21)
(0.374687 -0.0539091 -1.01151e-20)
(0.379591 -0.0528301 5.56162e-21)
(0.384561 -0.0518822 -7.35001e-22)
(0.389592 -0.0510415 1.50919e-23)
(0.394684 -0.0502874 -5.06901e-21)
(0.399834 -0.0496025 4.84402e-21)
(0.40504 -0.048972 -6.13301e-22)
(0.410301 -0.0483832 -1.33991e-21)
(0.415613 -0.0478256 -4.25207e-21)
(0.420974 -0.0472902 4.53187e-21)
(0.426381 -0.0467695 -9.4589e-22)
(0.431831 -0.0462572 1.68226e-21)
(0.437321 -0.0457484 -8.95696e-22)
(0.442848 -0.0452388 -1.1163e-21)
(0.448409 -0.0447253 5.78005e-22)
(0.453999 -0.0442053 3.06004e-21)
(0.459617 -0.043677 3.01367e-22)
(0.465258 -0.043139 -2.18209e-21)
(0.47092 -0.0425904 4.31587e-21)
(0.476599 -0.0420307 -7.36067e-21)
(0.482293 -0.0414597 1.52144e-21)
(0.487997 -0.0408775 1.87496e-21)
(0.493709 -0.0402844 -1.42382e-21)
(0.499427 -0.039681 2.46999e-21)
(0.505146 -0.0390678 -1.56773e-21)
(0.510865 -0.0384457 9.51727e-22)
(0.516581 -0.0378153 -6.14787e-22)
(0.52229 -0.0371777 -8.18305e-24)
(0.527991 -0.0365337 2.30939e-22)
(0.53368 -0.0358844 -1.02322e-21)
(0.539356 -0.0352306 8.75427e-22)
(0.545015 -0.0345734 -1.35836e-21)
(0.550657 -0.0339136 3.55165e-21)
(0.556277 -0.0332524 -2.07125e-21)
(0.561875 -0.0325905 2.67625e-22)
(0.567448 -0.0319289 -1.61633e-21)
(0.572994 -0.0312685 2.0115e-21)
(0.578512 -0.03061 3.11212e-22)
(0.583999 -0.0299543 -1.82363e-21)
(0.589454 -0.029302 -2.1379e-22)
(0.373284 -0.0656603 4.44125e-21)
(0.376547 -0.0634774 -1.63372e-21)
(0.380458 -0.0615887 -4.27914e-21)
(0.384767 -0.0598809 -1.23129e-21)
(0.389122 -0.05842 2.26534e-21)
(0.393567 -0.0571583 4.40433e-21)
(0.398109 -0.0560561 -7.58792e-21)
(0.402735 -0.0550866 7.14751e-21)
(0.40744 -0.0542258 -7.84703e-21)
(0.412219 -0.0534526 1.01879e-20)
(0.417067 -0.0527493 -3.28031e-21)
(0.421982 -0.0521007 -8.03483e-21)
(0.426959 -0.0514937 1.08638e-21)
(0.431995 -0.0509174 7.12802e-21)
(0.437086 -0.0503626 -6.8038e-21)
(0.442227 -0.0498215 8.72813e-21)
(0.447415 -0.0492877 -5.04723e-21)
(0.452647 -0.048756 3.05951e-21)
(0.457919 -0.0482224 -5.50847e-21)
(0.463227 -0.0476833 3.88678e-21)
(0.468567 -0.0471364 -1.64259e-21)
(0.473935 -0.0465798 -2.26456e-21)
(0.47933 -0.0460121 5.24922e-21)
(0.484746 -0.0454325 -2.02961e-21)
(0.490182 -0.0448405 -1.77538e-22)
(0.495633 -0.0442361 -5.20763e-22)
(0.501096 -0.0436194 -1.86052e-23)
(0.50657 -0.0429907 -1.41136e-21)
(0.51205 -0.0423508 -4.75079e-22)
(0.517534 -0.0417001 -4.28769e-22)
(0.52302 -0.0410397 4.30937e-21)
(0.528503 -0.0403703 6.10334e-22)
(0.533983 -0.039693 -4.37407e-21)
(0.539456 -0.0390087 -4.09636e-22)
(0.544921 -0.0383185 -1.6639e-22)
(0.550373 -0.0376235 9.81716e-22)
(0.555812 -0.0369246 4.39188e-22)
(0.561235 -0.036223 7.62224e-22)
(0.56664 -0.0355195 8.12392e-22)
(0.572025 -0.0348153 -2.75352e-21)
(0.577388 -0.0341113 3.22108e-21)
(0.582726 -0.0334083 -1.05917e-21)
(0.588039 -0.0327073 -2.24016e-22)
(0.593324 -0.0320092 -5.59227e-23)
(0.598579 -0.0313146 9.00306e-22)
(0.39573 -0.0686299 -2.85409e-21)
(0.39837 -0.0664969 -2.15965e-21)