/*--------------------------------*- C++ -*----------------------------------*\
  =========                 |
  \\      /  F ield         | OpenFOAM: The Open Source CFD Toolbox
   \\    /   O peration     | Website:  https://openfoam.org
    \\  /    A nd           | Version:  7
     \\/     M anipulation  |
\*---------------------------------------------------------------------------*/
FoamFile
{
    version     2.0;
    format      ascii;
    class       surfaceScalarField;
    location    "25";
    object      phi;
}
// * * * * * * * * * * * * * * * * * * * * * * * * * * * * * * * * * * * * * //

dimensions      [0 3 -1 0 0 0 0];

internalField   nonuniform List<scalar> 
5142
(
0.00905257
2.21793e-05
0.00903218
2.03868e-05
0.00901361
1.85756e-05
0.00899686
1.67468e-05
0.00898196
1.49008e-05
0.00896892
1.30384e-05
0.00895776
1.11602e-05
0.00894849
9.26708e-06
0.00894113
7.35953e-06
0.00893569
5.43855e-06
0.00893219
3.50448e-06
0.00893063
1.55861e-06
0.00893103
-3.98352e-07
0.0089334
-2.36669e-06
0.00893774
-4.34433e-06
0.00894407
-6.3309e-06
0.0089524
-8.32547e-06
0.00896272
-1.03273e-05
-1.23358e-05
0.00897506
0.0088426
4.37847e-05
0.00882275
4.02373e-05
0.00880467
3.6654e-05
0.00878838
3.30355e-05
0.0087739
2.93836e-05
0.00876124
2.56995e-05
0.00875041
2.19845e-05
0.00874144
1.82399e-05
0.00873433
1.44673e-05
0.0087291
1.06682e-05
0.00872576
6.84395e-06
0.00872432
2.99601e-06
0.0087248
-8.74035e-07
0.0087272
-4.76494e-06
0.00873153
-8.67472e-06
0.0087378
-1.26019e-05
0.00874602
-1.65451e-05
0.00875619
-2.05023e-05
-2.44721e-05
0.00876833
0.00863836
6.48049e-05
0.00861905
5.95391e-05
0.00860149
5.42202e-05
0.00858567
4.885e-05
0.00857163
4.34306e-05
0.00855936
3.79637e-05
0.0085489
3.24515e-05
0.00854024
2.68961e-05
0.00853341
2.12994e-05
0.00852841
1.56637e-05
0.00852527
9.99095e-06
0.00852398
4.28366e-06
0.00852456
-1.45601e-06
0.00852702
-7.22636e-06
0.00853137
-1.30244e-05
0.00853762
-1.8848e-05
0.00854577
-2.46948e-05
0.00855583
-3.05623e-05
-3.64482e-05
0.0085678
0.00843963
8.52349e-05
0.00842089
7.82854e-05
0.00840384
7.12665e-05
0.00838851
6.41809e-05
0.00837491
5.70307e-05
0.00836305
4.98189e-05
0.00835296
4.25479e-05
0.00834463
3.52203e-05
0.00833809
2.7839e-05
0.00833335
2.04067e-05
0.00833041
1.29262e-05
0.0083293
5.40049e-06
0.00833001
-2.1674e-06
0.00833256
-9.77527e-06
0.00833695
-1.7419e-05
0.0083432
-2.50963e-05
0.00835131
-3.28035e-05
0.00836128
-4.05378e-05
-4.8296e-05
0.00837313
0.00824621
0.000105073
0.00822802
9.64738e-05
0.0082115
8.77896e-05
0.00819666
7.90233e-05
0.00818351
7.01782e-05
0.00817207
6.12577e-05
0.00816236
5.22647e-05
0.00815437
4.32026e-05
0.00814814
3.40746e-05
0.00814366
2.48845e-05
0.00814095
1.56352e-05
0.00814002
6.33094e-06
0.00814088
-3.0253e-06
0.00814353
-1.24301e-05
0.00814799
-2.18788e-05
0.00815426
-3.13681e-05
0.00816236
-4.08945e-05
0.00817227
-5.04536e-05
-6.00418e-05
0.00818402
0.00805789
0.000124321
0.00804026
0.000114104
0.00802426
0.000103788
0.00800991
9.33749e-05
0.00799722
8.28696e-05
0.0079862
7.22756e-05
0.00797687
6.15965e-05
0.00796924
5.08361e-05
0.00796331
3.99985e-05
0.00795911
2.90876e-05
0.00795664
1.81077e-05
0.0079559
7.06294e-06
0.00795692
-4.04281e-06
0.0079597
-1.52053e-05
0.00796424
-2.64195e-05
0.00797055
-3.76814e-05
0.00797864
-4.89863e-05
0.00798852
-6.03299e-05
-7.17073e-05
0.00800018
0.00787446
0.000142979
0.00785739
0.000131177
0.00784192
0.000119261
0.00782806
0.000107235
0.00781582
9.51031e-05
0.00780523
8.28698e-05
0.00779629
7.05394e-05
0.00778901
5.81162e-05
0.0077834
4.56046e-05
0.00777948
3.30095e-05
0.00777725
2.03354e-05
0.00777673
7.58724e-06
0.00777792
-5.2303e-06
0.00778082
-1.81128e-05
0.00778546
-3.10541e-05
0.00779183
-4.405e-05
0.00779993
-5.70948e-05
0.00780979
-7.01836e-05
-8.33109e-05
0.00782139
0.00769574
0.00016105
0.00767922
0.000147694
0.00766427
0.00013421
0.0076509
0.000120603
0.00763913
0.000106878
0.00762896
9.30388e-05
0.00762041
7.9091e-05
0.00761349
6.50393e-05
0.0076082
5.08888e-05
0.00760457
3.66447e-05
0.00760259
2.2312e-05
0.00760228
7.89674e-06
0.00760365
-6.5965e-06
0.0076067
-2.11619e-05
0.00761144
-3.57936e-05
0.00761787
-5.04858e-05
0.00762601
-6.52329e-05
0.00763585
-8.00291e-05
-9.4868e-05
0.00764741
0.00752153
0.000178536
0.00750556
0.000163656
0.00749114
0.000148636
0.00747826
0.00013348
0.00746694
0.000118194
0.0074572
0.000102782
0.00744904
8.72496e-05
0.00744248
7.16031e-05
0.00743752
5.58475e-05
0.00743418
3.99888e-05
0.00743246
2.40327e-05
0.00743237
7.98531e-06
0.00743392
-8.14814e-06
0.00743712
-2.43609e-05
0.00744197
-4.06467e-05
0.00744848
-5.69991e-05
0.00745666
-7.34119e-05
0.00746651
-8.98785e-05
-0.000106392
0.00747804
0.00735165
0.000195439
0.00733624
0.000179066
0.00732233
0.000162541
0.00730995
0.000145867
0.00729909
0.000129051
0.00728977
0.000112098
0.00728201
9.50142e-05
0.00727581
7.78057e-05
0.00727117
6.04785e-05
0.00726812
4.3039e-05
0.00726666
2.5493e-05
0.0072668
7.8478e-06
0.00726854
-9.891e-06
0.0072719
-2.77163e-05
0.00727687
-4.5621e-05
0.00728347
-6.35983e-05
0.0072917
-8.16413e-05
0.00730157
-9.97428e-05
-0.000117896
0.00731307
0.00718593
0.000211761
0.00717107
0.000193926
0.00715769
0.000175925
0.00714579
0.000157764
0.00713539
0.00013945
0.0071265
0.000120988
0.00711913
0.000102384
0.00711329
8.36461e-05
0.00710899
6.47798e-05
0.00710624
4.57922e-05
0.00710504
2.66899e-05
0.00710541
7.48046e-06
0.00710735
-1.18301e-05
0.00711087
-3.12339e-05
0.00711597
-5.07234e-05
0.00712266
-7.0291e-05
0.00713095
-8.99296e-05
0.00714084
-0.000109631
-0.000129388
0.00715233
0.00702423
0.00700992
0.000208238
0.00699705
0.000188792
0.00698564
0.000169174
0.0069757
0.000149392
0.00696723
0.000129451
0.00696026
0.00010936
0.00695478
8.91235e-05
0.00695081
6.87502e-05
0.00694836
4.82467e-05
0.00694743
2.76207e-05
0.00694803
6.87981e-06
0.00695017
-1.39696e-05
0.00695385
-3.49185e-05
0.00695909
-5.59593e-05
0.00696588
-7.70837e-05
0.00697423
-9.82838e-05
0.00698415
-0.000119551
-0.000140878
0.00699564
0.00685261
0.000222004
0.00684026
0.000201142
0.00682934
0.000180098
0.00681985
0.000158878
0.00681181
0.00013749
0.00680523
0.00011594
0.00680012
9.42376e-05
0.00679648
7.23886e-05
0.00679433
5.04011e-05
0.00679366
2.82832e-05
0.0067945
6.04324e-06
0.00679684
-1.63127e-05
0.0068007
-3.87742e-05
0.00680607
-6.13335e-05
0.00681297
-8.39817e-05
0.0068214
-0.000106711
0.00683136
-0.000129511
-0.000152374
0.00684285
0.00669902
0.000235228
0.00668719
0.000212979
0.00667675
0.000190537
0.00666771
0.00016791
0.0066601
0.000145104
0.00665391
0.000122127
0.00664916
9.89884e-05
0.00664586
7.56946e-05
0.006644
5.22544e-05
0.00664361
2.86759e-05
0.00664469
4.9686e-06
0.00664723
-1.88622e-05
0.00665126
-4.28045e-05
0.00665678
-6.68502e-05
0.00666379
-9.099e-05
0.00667229
-0.000115215
0.0066823
-0.000139516
-0.000163883
0.00669381
0.00654902
0.000247912
0.00653769
0.000224305
0.00652773
0.000200495
0.00651915
0.000176489
0.00651196
0.000152295
0.00650617
0.000127922
0.00650178
0.000103376
0.00649881
7.86683e-05
0.00649725
5.38058e-05
0.00649713
2.87977e-05
0.00649845
3.65442e-06
0.0065012
-2.16206e-05
0.00650541
-4.70122e-05
0.00651108
-7.25127e-05
0.0065182
-9.81126e-05
0.00652679
-0.000123802
0.00653684
-0.000149572
-0.000175411
0.00654837
0.00640247
0.000260059
0.00639165
0.000235123
0.00638217
0.000209973
0.00637404
0.000184618
0.00636727
0.000159065
0.00636187
0.000133324
0.00635784
0.000107402
0.0063552
8.13098e-05
0.00635395
5.50551e-05
0.0063541
2.86476e-05
0.00635566
2.10057e-06
0.00635863
-2.45895e-05
0.00636301
-5.13999e-05
0.00636883
-7.83242e-05
0.00637607
-0.000105353
0.00638474
-0.000132476
0.00639485
-0.000159683
-0.000186963
0.0064064
0.00625926
0.000271673
0.00624895
0.000245435
0.00623995
0.000218974
0.00623227
0.000192298
0.00622592
0.000165415
0.0062209
0.000138335
0.00621724
0.000111067
0.00621493
8.36192e-05
0.00621398
5.60018e-05
0.00621441
2.82235e-05
0.0062162
3.11862e-07
0.00621938
-2.77723e-05
0.00622395
-5.59694e-05
0.00622991
-8.42872e-05
0.00623727
-0.000112714
0.00624604
-0.00014124
0.00625621
-0.000169854
-0.000198544
0.00626779
0.00611928
0.000282756
0.00610948
0.000255245
0.00610095
0.000227501
0.00609371
0.000199532
0.00608778
0.000171348
0.00608316
0.000142959
0.00607985
0.000114372
0.00607787
8.55992e-05
0.00607723
5.66489e-05
0.00607792
2.75319e-05
0.00607997
-1.73666e-06
0.00608336
-3.11634e-05
0.00608811
-6.07204e-05
0.00609422
-9.04021e-05
0.00610171
-0.000120198
0.00611056
-0.000150097
0.0061208
-0.000180087
-0.000210158
0.00613241
0.00598244
0.000293312
0.00597313
0.000264555
0.00596508
0.000235556
0.00595829
0.000206323
0.00595277
0.000176866
0.00594853
0.000147195
0.00594558
0.000117319
0.00594393
8.72493e-05
0.00594359
5.69949e-05
0.00594455
2.65669e-05
0.00594684
-4.02219e-06
0.00595045
-3.47695e-05
0.00595538
-6.56554e-05
0.00596165
-9.66716e-05
0.00596926
-0.000127806
0.00597821
-0.000159048
0.00598851
-0.000190386
-0.000221807
0.00600016
0.00584863
0.000303345
0.00583982
0.00027337
0.00583223
0.000243142
0.00582588
0.000212673
0.00582078
0.000181971
0.00581693
0.000151047
0.00581434
0.00011991
0.00581302
8.85711e-05
0.00581297
5.7041e-05
0.00581421
2.53306e-05
0.00581673
-6.54834e-06
0.00582055
-3.8589e-05
0.00582567
-7.07752e-05
0.0058321
-0.000103097
0.00583983
-0.000135541
0.00584888
-0.000168097
0.00585925
-0.000200753
-0.000233495
0.00587093
0.00571777
0.000312858
0.00570945
0.000281691
0.00570233
0.000250263
0.00569642
0.000218585
0.00569172
0.000186665
0.00568825
0.000154515
0.00568602
0.000122146
0.00568502
8.95663e-05
0.00568528
5.67888e-05
0.00568678
2.38242e-05
0.00568955
-9.31563e-06
0.00569358
-4.26221e-05
0.00569889
-7.60797e-05
0.00570547
-0.000109678
0.00571333
-0.000143403
0.00572248
-0.000177245
0.00573291
-0.000211189
-0.000245224
0.00574464
0.00558977
0.000321855
0.00558194
0.000289523
0.00557528
0.000256922
0.0055698
0.000224062
0.00556552
0.000190952
0.00556243
0.000157604
0.00556054
0.000124029
0.00555987
9.02367e-05
0.00556042
5.62393e-05
0.0055622
2.20488e-05
0.00556521
-1.23238e-05
0.00556945
-4.6868e-05
0.00557494
-8.1569e-05
0.00558168
-0.000116415
0.00558967
-0.000151394
0.00559892
-0.000186492
0.00560942
-0.000221697
-0.000256995
0.0056212
0.00546455
0.00033034
0.0054572
0.00029687
0.005451
0.000263122
0.00544596
0.000229107
0.00544208
0.000194834
0.00543937
0.000160315
0.00543783
0.000125561
0.00543749
9.05839e-05
0.00543833
5.53945e-05
0.00544037
2.00055e-05
0.00544362
-1.55722e-05
0.00544808
-5.13262e-05
0.00545375
-8.72427e-05
0.00546065
-0.000123309
0.00546877
-0.000159513
0.00547811
-0.00019584
0.00548869
-0.000232277
-0.00026881
0.00550051
0.00534203
0.000338316
0.00533517
0.000303735
0.00532942
0.000268867
0.00532481
0.000233722
0.00532133
0.000198314
0.00531899
0.000162651
0.00531781
0.000126746
0.00531778
9.061e-05
0.00531892
5.42558e-05
0.00532123
1.76959e-05
0.00532472
-1.90595e-05
0.00532939
-5.59961e-05
0.00533525
-9.31005e-05
0.0053423
-0.00013036
0.00535054
-0.00016776
0.00535999
-0.000205288
0.00537064
-0.000242929
-0.000280669
0.0053825
0.00522215
0.000345788
0.00521577
0.000310121
0.00521047
0.000274159
0.00520628
0.000237913
0.0052032
0.000201394
0.00520124
0.000164614
0.0052004
0.000127584
0.00520069
9.03172e-05
0.00520213
5.28249e-05
0.0052047
1.51212e-05
0.00520843
-2.27846e-05
0.00521331
-6.08768e-05
0.00521935
-9.91417e-05
0.00522655
-0.000137566
0.00523493
-0.000176136
0.00524448
-0.000214836
0.0052552
-0.000253654
-0.000292573
0.00526711
0.00510484
0.000352759
0.00509893
0.000316032
0.00509408
0.000279003
0.00509032
0.000241681
0.00508763
0.000204078
0.00508604
0.000166207
0.00508554
0.000128079
0.00508615
8.97073e-05
0.00508788
5.11039e-05
0.00509071
1.22831e-05
0.00509468
-2.67464e-05
0.00509977
-6.59672e-05
0.00510599
-0.000105365
0.00511335
-0.000144927
0.00512185
-0.000184639
0.0051315
-0.000224485
0.0051423
-0.000264452
-0.000304522
0.00515425
0.00499003
0.000359234
0.00498459
0.000321473
0.00498019
0.000283401
0.00497684
0.000245029
0.00497455
0.000206369
0.00497333
0.000167433
0.00497317
0.000128233
0.0049741
8.87826e-05
0.00497611
4.90944e-05
0.00497921
9.18366e-06
0.0049834
-3.09436e-05
0.0049887
-7.12658e-05
0.00499511
-0.000111771
0.00500262
-0.000152443
0.00501125
-0.00019327
0.005021
-0.000234234
0.00503187
-0.000275321
-0.000316514
0.00504386
0.00487767
0.000365216
0.00487269
0.000326447
0.00486874
0.000287358
0.0048658
0.000247962
0.0048639
0.000208269
0.00486304
0.000168294
0.00486323
0.000128048
0.00486447
8.75452e-05
0.00486676
4.6798e-05
0.00487012
5.82507e-06
0.00487455
-3.53746e-05
0.00488006
-7.67719e-05
0.00488664
-0.000118356
0.00489431
-0.000160113
0.00490307
-0.000202026
0.00491292
-0.000244081
0.00492386
-0.000286261
-0.000328549
0.00493589
0.00476769
0.00037071
0.00476318
0.000330957
0.00475966
0.000290877
0.00475714
0.000250481
0.00475563
0.000209782
0.00475513
0.000168793
0.00475565
0.000127527
0.0047572
8.59966e-05
0.00475978
4.42162e-05
0.0047634
2.21109e-06
0.00476806
-4.00389e-05
0.00477377
-8.2484e-05
0.00478054
-0.000125121
0.00478836
-0.000167934
0.00479724
-0.000210907
0.00480718
-0.000254025
0.00481819
-0.000297269
-0.000340624
0.00483027
0.00466005
0.000375719
0.004656
0.000335008
0.00465292
0.000293961
0.00465081
0.000252591
0.00464968
0.000210911
0.00464954
0.000168933
0.00465039
0.000126672
0.00465225
8.41402e-05
0.00465511
4.13522e-05
0.00465899
-1.66256e-06
0.00466388
-4.49331e-05
0.0046698
-8.83996e-05
0.00467674
-0.000132062
0.00468471
-0.000175905
0.00469371
-0.000219911
0.00470375
-0.000264064
0.00471483
-0.000308345
-0.000352737
0.00472694
0.00455469
0.000380248
0.0045511
0.000338603
0.00454845
0.000296613
0.00454674
0.000254294
0.004546
0.000211657
0.00454621
0.000168716
0.0045474
0.000125485
0.00454956
8.19782e-05
0.0045527
3.821e-05
0.00455684
-5.7996e-06
0.00456196
-5.00533e-05
0.00456808
-9.45167e-05
0.00457519
-0.000139179
0.00458331
-0.000184024
0.00459244
-0.000229035
0.00460257
-0.000274195
0.00461371
-0.000319484
-0.000364884
0.00462585
0.00445157
0.0003843
0.00444843
0.000341744
0.0044462
0.000298837
0.0044449
0.000255593
0.00444454
0.000212024
0.00444511
0.000168145
0.00444662
0.000123969
0.00444909
7.95118e-05
0.00445251
3.47879e-05
0.0044569
-1.01857e-05
0.00446225
-5.54015e-05
0.00446856
-0.000100834
0.00447585
-0.000146469
0.00448412
-0.000192289
0.00449336
-0.000238277
0.00450358
-0.000284415
0.00451478
-0.000330682
-0.000377061
0.00452696
0.00435063
0.000387879
0.00434794
0.000344437
0.00434614
0.000300636
0.00434524
0.000256491
0.00434525
0.000212015
0.00434618
0.000167221
0.00434802
0.000122126
0.00435079
7.67432e-05
0.00435449
3.10891e-05
0.00435912
-1.48208e-05
0.0043647
-6.09744e-05
0.00437121
-0.000107349
0.00437867
-0.000153929
0.00438708
-0.000200696
0.00439643
-0.000247633
0.00440674
-0.00029472
0.00441799
-0.000341936
-0.000389263
0.00443019
0.00425184
0.000390988
0.0042496
0.000346683
0.00424822
0.000302012
0.00424772
0.00025699
0.0042481
0.000211631
0.00424938
0.000165948
0.00425155
0.000119958
0.00425461
7.3675e-05
0.00425859
2.71164e-05
0.00426347
-1.97036e-05
0.00426926
-6.67688e-05
0.00427597
-0.000114059
0.0042836
-0.000161556
0.00429215
-0.000209242
0.00430161
-0.000257099
0.004312
-0.000305104
0.0043233
-0.00035324
-0.000401482
0.00433552
0.00415516
0.000393631
0.00415335
0.000348486
0.0041524
0.000302969
0.00415229
0.000257094
0.00415305
0.000210875
0.00415467
0.000164328
0.00415716
0.000117467
0.00416052
7.03096e-05
0.00416477
2.28723e-05
0.0041699
-2.48312e-05
0.00417591
-7.27817e-05
0.00418281
-0.000120959
0.0041906
-0.000169346
0.00419928
-0.000217922
0.00420885
-0.000266669
0.00421931
-0.000315564
0.00423065
-0.000364586
-0.000413712
0.00424288
0.00406053
0.00039581
0.00405917
0.000349849
0.00405863
0.000303509
0.00405892
0.000256804
0.00406004
0.000209751
0.00406201
0.000162362
0.00406482
0.000114657
0.00406848
6.66499e-05
0.00407299
1.83601e-05
0.00407836
-3.02007e-05
0.00408459
-7.90095e-05
0.00409167
-0.000128047
0.00409962
-0.000177294
0.00410843
-0.000226731
0.0041181
-0.000276337
0.00412863
-0.00032609
0.00414001
-0.000375966
-0.000425943
0.00415224
0.00396793
0.00039753
0.00396701
0.000350775
0.00396688
0.000303635
0.00396756
0.000256125
0.00396905
0.00020826
0.00397136
0.000160056
0.00397449
0.00011153
0.00397844
6.2699e-05
0.00398321
1.35837e-05
0.00398882
-3.5808e-05
0.00399526
-8.54475e-05
0.00400253
-0.000135316
0.00401063
-0.000185395
0.00401956
-0.000235663
0.00402932
-0.000286097
0.00403991
-0.000336675
0.00405131
-0.000387372
-0.000438165
0.00406353
0.00387733
0.000398793
0.00387684
0.000351267
0.00387712
0.00030335
0.00387819
0.000255058
0.00388004
0.000206406
0.00388269
0.00015741
0.00388613
0.000108089
0.00389037
5.84605e-05
0.0038954
8.54796e-06
0.00390124
-4.16489e-05
0.00390789
-9.20908e-05
0.00391533
-0.000142762
0.00392358
-0.000193642
0.00393262
-0.000244709
0.00394247
-0.000295939
0.0039531
-0.000347309
0.00396452
-0.000398793
-0.000450366
0.00397672
0.00378868
0.000399602
0.00378862
0.000351328
0.00378931
0.000302658
0.00379076
0.000253607
0.00379297
0.000204192
0.00379595
0.00015443
0.0037997
0.000104339
0.00380423
5.39378e-05
0.00380951
3.25983e-06
0.00381558
-4.77188e-05
0.00382243
-9.8933e-05
0.00383004
-0.000150376
0.00383843
-0.000202027
0.00384758
-0.00025386
0.00385749
-0.000305854
0.00386816
-0.000357981
0.00387959
-0.000410216
-0.000462532
0.00389175
0.00370195
0.000399962
0.00370232
0.000350962
0.00370341
0.000301561
0.00370524
0.000251776
0.00370781
0.000201622
0.00371112
0.000151119
0.00371518
0.000100285
0.00371998
4.91384e-05
0.00372552
-2.28144e-06
0.00373181
-5.40089e-05
0.00373884
-0.000105966
0.00374662
-0.000158151
0.00375513
-0.00021054
0.00376438
-0.000263108
0.00377435
-0.00031583
0.00378505
-0.000368679
0.00379646
-0.000421629
-0.000474649
0.00380858
0.00361712
0.000399875
0.00361791
0.000350172
0.0036194
0.000300064
0.00362161
0.000249568
0.00362453
0.000198702
0.00362817
0.000147484
0.00363252
9.59333e-05
0.00363759
4.40712e-05
0.00364338
-8.07553e-06
0.00364988
-6.05088e-05
0.00365709
-0.000113181
0.00366502
-0.000166077
0.00367365
-0.000219171
0.00368298
-0.00027244
0.00369301
-0.000325855
0.00370372
-0.00037939
0.0037151
-0.000433015
-0.0004867
0.00372716
0.00353415
0.000399345
0.00353535
0.000348963
0.00353725
0.000298172
0.00353983
0.00024699
0.00354309
0.000195436
0.00354705
0.000143529
0.00355169
9.12892e-05
0.00355702
3.87387e-05
0.00356305
-1.41002e-05
0.00356975
-6.72146e-05
0.00357714
-0.000120569
0.00358521
-0.000174142
0.00359394
-0.000227909
0.00360335
-0.000281842
0.00361341
-0.000335915
0.00362411
-0.000390097
0.00363546
-0.000444359
-0.000498669
0.00364743
0.00345301
0.000398378
0.00345463
0.00034734
0.00345691
0.00029589
0.00345986
0.000244047
0.00346346
0.000191831
0.00346773
0.000139262
0.00347266
8.63611e-05
0.00347824
3.3151e-05
0.00348449
-2.03476e-05
0.00349139
-7.41144e-05
0.00349894
-0.000128118
0.00350713
-0.000182335
0.00351596
-0.000236739
0.00352542
-0.000291301
0.0035355
-0.000345994
0.00354619
-0.000400785
0.00355747
-0.000455643
-0.000510536
0.00356934
0.00337368
0.000396979
0.00337571
0.000345308
0.00337837
0.000293224
0.00338167
0.000240746
0.00338561
0.000187895
0.00339018
0.000134692
0.00339538
8.11586e-05
0.00340121
2.7319e-05
0.00340768
-2.6808e-05
0.00341476
-8.11958e-05
0.00342245
-0.000135816
0.00343076
-0.000190642
0.00343967
-0.000245647
0.00344917
-0.000300802
0.00345925
-0.000356075
0.0034699
-0.000411435
0.00348111
-0.000466849
-0.000522281
0.00349285
0.00329612
0.000395155
0.00329856
0.000342876
0.0033016
0.000290183
0.00330525
0.000237097
0.0033095
0.000183638
0.00331437
0.000129829
0.00331983
7.56927e-05
0.0033259
2.12548e-05
0.00333256
-3.34689e-05
0.00333981
-8.84454e-05
0.00334764
-0.000143647
0.00335604
-0.000199048
0.00336501
-0.000254617
0.00337454
-0.000310326
0.0033846
-0.000366141
0.0033952
-0.00042203
0.00340631
-0.000477957
-0.000533886
0.00341791
0.00322032
0.000392914
0.00322314
0.000340052
0.00322655
0.000286777
0.00323054
0.000233109
0.0032351
0.000179071
0.00324025
0.000124685
0.00324597
6.9976e-05
0.00325225
1.49722e-05
0.0032591
-4.03163e-05
0.0032665
-9.5848e-05
0.00327445
-0.000151597
0.00328293
-0.000207535
0.00329195
-0.000263632
0.00330148
-0.000319856
0.00331151
-0.000376173
0.00332203
-0.000432549
0.00333302
-0.000488946
-0.000545328
0.00334446
0.00314623
0.000390266
0.00314944
0.000336847
0.0031532
0.000283016
0.00315751
0.000228794
0.00316238
0.000174206
0.00316779
0.000119273
0.00317375
6.40221e-05
0.00318023
8.48822e-06
0.00318725
-4.73353e-05
0.00319479
-0.000103387
0.00320284
-0.000159647
0.00321139
-0.000216086
0.00322043
-0.000272673
0.00322995
-0.000329373
0.00323993
-0.000386151
0.00325035
-0.000442972
0.0032612
-0.000499798
-0.000556587
0.00327246
0.00307384
0.00307742
0.000333273
0.00308152
0.000278914
0.00308614
0.000224167
0.00309129
0.000169058
0.00309696
0.000113609
0.00310313
5.78452e-05
0.0031098
1.8224e-06
0.00311697
-5.45104e-05
0.00312463
-0.000111045
0.00313276
-0.00016778
0.00314136
-0.000224683
0.00315041
-0.00028172
0.00315989
-0.000338856
0.0031698
-0.000396056
0.0031801
-0.00045328
0.0031908
-0.00051049
-0.000567643
0.00320185
0.00300704
0.00301147
0.00301639
0.0030218
0.000163644
0.0030277
0.000107711
0.00303407
5.14726e-05
0.00304093
-5.03044e-06
0.00304823
-6.18136e-05
0.00305599
-0.0001188
0.00306418
-0.000175975
0.0030728
-0.000233304
0.00308184
-0.000290754
0.00309127
-0.000348287
0.00310108
-0.000405866
0.00311125
-0.000463452
0.00312176
-0.000521002
-0.000578475
0.00313259
0.00295388
0.00295999
0.00296655
0.00297355
0.00298097
-6.92329e-05
0.0029888
-0.000126636
0.00299704
-0.000184213
0.00300567
-0.000241931
0.00301467
-0.000299754
0.00302402
-0.000357644
0.00303372
-0.000415562
0.00304374
-0.000473467
0.00305405
-0.000531316
-0.000589063
0.00306464
0.00291514
0.00292303
0.00293129
0.0029399
0.00294885
0.00295811
0.00296768
0.00297752
0.00298761
-0.000541412
-0.00059939
0.00299794
0.00292241
0.00293245
0.00898944
-1.43795e-05
0.00900584
-1.63984e-05
0.00902426
-1.8421e-05
0.0090447
-2.04465e-05
0.00906718
-2.24743e-05
0.00909168
-2.45032e-05
0.00911821
-2.65324e-05
0.00914678
-2.85611e-05
0.00917736
-3.05882e-05
0.00920998
-3.26132e-05
0.00924461
-3.46345e-05
0.00928126
-3.66517e-05
0.00931993
-3.86637e-05
0.0093606
-4.06696e-05
0.00940327
-4.26686e-05
0.00944792
-4.46595e-05
0.00949457
-4.66415e-05
0.00954318
-4.86138e-05
0.00959376
-5.05752e-05
0.00964628
-5.25249e-05
0.00970074
-5.44621e-05
0.00975713
-5.63855e-05
0.00981542
-5.82947e-05
0.00987561
-6.0188e-05
0.00993768
-6.20654e-05
0.0100016
-6.3925e-05
0.0100674
-6.57666e-05
0.010135
-6.75887e-05
0.0102043
-6.93905e-05
0.0102755
-7.11708e-05
0.0103484
-7.29287e-05
0.0104231
-7.46628e-05
0.0104995
-7.63721e-05
0.0105775
-7.80547e-05
0.0106572
-7.97094e-05
0.0107386
-8.13339e-05
0.00878246
-2.8512e-05
0.00879857
-3.25019e-05
0.00881665
-3.64993e-05
0.0088367
-4.05026e-05
0.00885874
-4.45098e-05
0.00888275
-4.85192e-05
0.00890875
-5.25291e-05
0.00893673
-5.65378e-05
0.00896668
-6.05434e-05
0.00899861
-6.4544e-05
0.00903252
-6.85378e-05
0.00906839
-7.25233e-05
0.00910622
-7.64985e-05
0.00914601
-8.04613e-05
0.00918776
-8.44101e-05
0.00923144
-8.83432e-05
0.00927706
-9.22586e-05
0.0093246
-9.61543e-05
0.00937405
-0.000100029
0.00942541
-0.00010388
0.00947865
-0.000107706
0.00953377
-0.000111505
0.00959075
-0.000115276
0.00964958
-0.000119016
0.00971024
-0.000122723
0.00977271
-0.000126396
0.00983697
-0.000130033
0.00990302
-0.000133632
0.00997082
-0.00013719
0.0100404
-0.000140706
0.0101116
-0.000144178
0.0101845
-0.000147603
0.0102591
-0.000150978
0.0103354
-0.000154301
0.0104133
-0.000157568
-0.000160776
0.00858173
-4.24376e-05
0.00859758
-4.83528e-05
0.00861536
-5.42789e-05
0.00863507
-6.02132e-05
0.00865671
-6.61533e-05
0.00868029
-7.20965e-05
0.0087058
-7.80401e-05
0.00873324
-8.39815e-05
0.00876262
-8.99182e-05
0.00879392
-9.58475e-05
0.00882715
-0.000101767
0.0088623
-0.000107673
0.00889937
-0.000113564
0.00893834
-0.000119436
0.00897922
-0.000125288
0.00902199
-0.000131116
0.00906665
-0.000136918
0.00911319
-0.00014269
0.00916159
-0.000148431
0.00921185
-0.000154137
0.00926395
-0.000159806
0.00931788
-0.000165435
0.00937362
-0.000171022
0.00943117
-0.000176563
0.0094905
-0.000182055
0.0095516
-0.000187497
0.00961445
-0.000192885
0.00967904
-0.000198216
0.00974533
-0.000203487
0.00981332
-0.000208696
0.00988298
-0.000213839
0.00995429
-0.000218912
0.0100272
-0.000223912
0.0101018
-0.000228834
0.0101779
-0.000233674
-0.000238426
0.00838689
-5.61902e-05
0.00840252
-6.39864e-05
0.00842004
-7.17964e-05
0.00843944
-7.9617e-05
0.00846073
-8.7445e-05
0.00848391
-9.52765e-05
0.00850898
-0.000103109
0.00853594
-0.000110938
0.00856478
-0.00011876
0.0085955
-0.000126572
0.00862811
-0.000134371
0.00866259
-0.000142153
0.00869894
-0.000149914
0.00873715
-0.000157651
0.00877722
-0.00016536
0.00881914
-0.000173037
0.00886291
-0.00018068
0.0089085
-0.000188284
0.00895592
-0.000195847
0.00900514
-0.000203363
0.00905617
-0.000210831
0.00910898
-0.000218245
0.00916356
-0.000225603
0.0092199
-0.000232902
0.00927798
-0.000240136
0.00933779
-0.000247304
0.0093993
-0.0002544
0.00946251
-0.000261421
0.00952738
-0.000268364
0.00959391
-0.000275224
0.00966207
-0.000281997
0.00973184
-0.000288679
0.00980319
-0.000295264
0.0098761
-0.000301746
0.00995055
-0.00030812
-0.000314378
0.00819762
-6.97977e-05
0.00821307
-7.94319e-05
0.00823036
-8.9083e-05
0.00824949
-9.87469e-05
0.00827046
-0.000108419
0.00829328
-0.000118096
0.00831794
-0.000127773
0.00834445
-0.000137446
0.0083728
-0.00014711
0.00840299
-0.000156762
0.00843502
-0.000166396
0.00846887
-0.000176009
0.00850456
-0.000185597
0.00854206
-0.000195154
0.00858138
-0.000204677
0.0086225
-0.000214161
0.00866542
-0.000223601
0.00871013
-0.000232994
0.00875662
-0.000242335
0.00880487
-0.000251619
0.00885489
-0.000260842
0.00890664
-0.00027
0.00896013
-0.000279088
0.00901533
-0.000288102
0.00907223
-0.000297037
0.00913081
-0.000305889
0.00919107
-0.000314653
0.00925297
-0.000323325
0.0093165
-0.000331899
0.00938165
-0.000340371
0.00944839
-0.000348735
0.0095167
-0.000356986
0.00958655
-0.000365118
0.00965793
-0.000373123
0.0097308
-0.000380994
-0.000388721
0.00801367
-8.32834e-05
0.00802895
-9.47145e-05
0.00804604
-0.000106165
0.00806492
-0.000117631
0.00808561
-0.000129106
0.00810809
-0.000140586
0.00813239
-0.000152065
0.00815848
-0.00016354
0.00818638
-0.000175004
0.00821607
-0.000186453
0.00824755
-0.000197881
0.00828083
-0.000209284
0.00831589
-0.000220656
0.00835272
-0.000231992
0.00839133
-0.000243286
0.00843171
-0.000254535
0.00847384
-0.000265732
0.00851771
-0.000276871
0.00856333
-0.000287949
0.00861067
-0.00029896
0.00865973
-0.000309898
0.00871048
-0.000320759
0.00876293
-0.000331536
0.00881706
-0.000342226
0.00887284
-0.000352822
0.00893027
-0.000363319
0.00898933
-0.000373711
0.00905
-0.000383994
0.00911226
-0.000394162
0.0091761
-0.000404208
0.00924149
-0.000414126
0.00930841
-0.00042391
0.00937685
-0.000433552
0.00944677
-0.000443043
0.00951815
-0.000452375
-0.000461537
0.00783478
-9.6667e-05
0.00784992
-0.000109855
0.00786682
-0.000123066
0.00788548
-0.000136292
0.0079059
-0.00014953
0.00792809
-0.000162773
0.00795204
-0.000176015
0.00797775
-0.000189251
0.00800522
-0.000202474
0.00803445
-0.00021568
0.00806543
-0.000228861
0.00809816
-0.000242013
0.00813263
-0.000255129
0.00816884
-0.000268203
0.00820678
-0.000281229
0.00824645
-0.000294202
0.00828783
-0.000307115
0.00833093
-0.000319962
0.00837571
-0.000332738
0.00842219
-0.000345436
0.00847034
-0.00035805
0.00852016
-0.000370574
0.00857162
-0.000383003
0.00862473
-0.000395329
0.00867945
-0.000407548
0.00873579
-0.000419652
0.00879371
-0.000431636
0.00885321
-0.000443493
0.00891427
-0.000455217
0.00897686
-0.0004668
0.00904097
-0.000478236
0.00910658
-0.000489517
0.00917366
-0.000500634
0.00924219
-0.000511577
0.00931215
-0.000522337
-0.000532899
0.00766071
-0.000109965
0.00767573
-0.000124872
0.00769247
-0.000139804
0.00771093
-0.000154753
0.00773111
-0.000169714
0.00775302
-0.000184681
0.00777665
-0.000199646
0.007802
-0.000214604
0.00782908
-0.000229548
0.00785787
-0.000244472
0.00788838
-0.000259367
0.00792059
-0.000274229
0.00795451
-0.00028905
0.00799013
-0.000303824
0.00802745
-0.000318543
0.00806645
-0.000333202
0.00810713
-0.000347793
0.00814947
-0.000362309
0.00819348
-0.000376744
0.00823913
-0.000391091
0.00828643
-0.000405343
0.00833535
-0.000419494
0.00838588
-0.000433536
0.00843801
-0.000447463
0.00849173
-0.000461267
0.00854702
-0.000474943
0.00860387
-0.000488482
0.00866225
-0.000501877
0.00872216
-0.000515121
0.00878356
-0.000528207
0.00884645
-0.000541126
0.00891081
-0.000553869
0.0089766
-0.000566427
0.00904381
-0.000578789
0.00911242
-0.000590942
-0.000602872
0.00749126
-0.000123193
0.00750617
-0.000139782
0.00752277
-0.000156396
0.00754104
-0.000173031
0.00756101
-0.000189678
0.00758266
-0.000206331
0.00760599
-0.000222982
0.00763102
-0.000239625
0.00765772
-0.000256251
0.0076861
-0.000272854
0.00771616
-0.000289427
0.00774789
-0.000305961
0.00778129
-0.00032245
0.00781635
-0.000338885
0.00785307
-0.000355261
0.00789144
-0.000371568
0.00793144
-0.0003878
0.00797308
-0.000403948
0.00801635
-0.000420006
0.00806122
-0.000435966
0.0081077
-0.00045182
0.00815576
-0.000467561
0.00820541
-0.000483181
0.00825662
-0.000498672
0.00830938
-0.000514027
0.00836367
-0.000529238
0.00841949
-0.000544297
0.00847681
-0.000559196
0.00853561
-0.000573927
0.00859589
-0.000588481
0.00865761
-0.000602848
0.00872076
-0.00061702
0.00878532
-0.000630986
0.00885126
-0.000644733
0.00891857
-0.000658247
-0.000671513
0.00732624
-0.000136363
0.00734106
-0.000154597
0.00735752
-0.000172859
0.00737563
-0.000191142
0.00739539
-0.000209439
0.0074168
-0.000227742
0.00743986
-0.000246042
0.00746457
-0.000264333
0.00749092
-0.000282605
0.00751892
-0.000300852
0.00754856
-0.000319064
0.00757983
-0.000337235
0.00761274
-0.000355355
0.00764727
-0.000373416
0.00768342
-0.000391411
0.00772118
-0.000409331
0.00776055
-0.000427168
0.00780152
-0.000444913
0.00784407
-0.000462559
0.0078882
-0.000480096
0.00793389
-0.000497517
0.00798115
-0.000514813
0.00802994
-0.000531976
0.00808027
-0.000548997
0.00813211