/*--------------------------------*- C++ -*----------------------------------*\
  =========                 |
  \\      /  F ield         | OpenFOAM: The Open Source CFD Toolbox
   \\    /   O peration     | Website:  https://openfoam.org
    \\  /    A nd           | Version:  7
     \\/     M anipulation  |
\*---------------------------------------------------------------------------*/
FoamFile
{
    version     2.0;
    format      ascii;
    class       volVectorField;
    location    "10";
    object      U;
}
// * * * * * * * * * * * * * * * * * * * * * * * * * * * * * * * * * * * * * //

dimensions      [0 1 -1 0 0 0 0];

internalField   nonuniform List<vector> 
2625
(
(1.13516 -0.00267355 -1.142e-21)
(1.13694 -0.00266496 3.36171e-22)
(1.13873 -0.00265626 -2.06147e-22)
(1.14052 -0.00264745 7.55419e-22)
(1.1423 -0.00263853 1.36568e-22)
(1.14409 -0.00262949 -8.1239e-22)
(1.14587 -0.00262033 6.21353e-22)
(1.14765 -0.00261105 -1.39649e-22)
(1.14944 -0.00260164 -5.09027e-22)
(1.15121 -0.0025921 1.89593e-22)
(1.15299 -0.00258242 3.74649e-23)
(1.15476 -0.00257259 1.38216e-22)
(1.15653 -0.00256262 1.04602e-22)
(1.15829 -0.00255247 -2.33326e-22)
(1.16005 -0.00254216 1.45282e-22)
(1.1618 -0.00253169 2.90937e-23)
(1.16354 -0.00252105 -6.43973e-23)
(1.16528 -0.00251023 3.91655e-24)
(1.16701 -0.00249923 3.15299e-24)
(1.13527 -0.00798915 -3.30051e-22)
(1.13707 -0.00796155 6.36048e-22)
(1.13886 -0.00793357 -7.48238e-22)
(1.14065 -0.00790519 3.39342e-22)
(1.14244 -0.00787643 -1.72193e-22)
(1.14423 -0.00784728 -2.23822e-22)
(1.14602 -0.00781773 2.29385e-22)
(1.14781 -0.00778779 -2.10817e-22)
(1.1496 -0.00775744 2.53056e-22)
(1.15138 -0.00772669 -1.11456e-23)
(1.15317 -0.00769553 -1.70696e-22)
(1.15494 -0.00766395 4.53277e-23)
(1.15672 -0.00763194 1.418e-23)
(1.15848 -0.00759949 -7.84573e-23)
(1.16025 -0.00756659 5.04404e-23)
(1.162 -0.00753325 1.03354e-22)
(1.16376 -0.00749945 -2.85344e-23)
(1.1655 -0.00746518 -5.92111e-24)
(1.16723 -0.00743044 6.47646e-24)
(1.1355 -0.0131941 -1.34859e-22)
(1.1373 -0.0131473 6.12595e-22)
(1.1391 -0.0131 3.81634e-22)
(1.14091 -0.013052 -5.48557e-22)
(1.14271 -0.0130034 -4.47289e-23)
(1.14451 -0.0129541 -1.72615e-22)
(1.14631 -0.0129043 1.37768e-22)
(1.14811 -0.0128538 -1.06673e-22)
(1.14991 -0.0128026 1.40236e-22)
(1.15171 -0.0127508 5.87319e-23)
(1.1535 -0.0126984 1.43759e-23)
(1.15529 -0.0126453 -6.22016e-23)
(1.15707 -0.0125916 8.50124e-23)
(1.15885 -0.0125372 -1.35971e-22)
(1.16062 -0.0124821 1.20766e-22)
(1.16239 -0.0124263 4.91507e-23)
(1.16415 -0.0123698 -5.81141e-23)
(1.16591 -0.0123125 -1.15468e-23)
(1.16765 -0.0122545 4.24717e-24)
(1.13584 -0.0183144 1.90923e-22)
(1.13765 -0.0182484 5.26235e-23)
(1.13946 -0.0181814 -5.26515e-22)
(1.14128 -0.0181135 1.53511e-22)
(1.1431 -0.0180448 2.9551e-22)
(1.14491 -0.0179752 -1.88663e-22)
(1.14673 -0.0179047 9.21314e-23)
(1.14854 -0.0178333 -2.30882e-22)
(1.15036 -0.017761 6.14913e-23)
(1.15217 -0.0176879 -1.32849e-22)
(1.15397 -0.0176138 1.77778e-22)
(1.15578 -0.0175389 -3.68849e-23)
(1.15757 -0.017463 5.66915e-23)
(1.15937 -0.0173863 -4.81212e-23)
(1.16116 -0.0173086 2.67846e-23)
(1.16294 -0.0172299 -3.66118e-23)
(1.16472 -0.0171503 2.22378e-23)
(1.16649 -0.0170697 1.69716e-23)
(1.16825 -0.0169881 -1.07976e-23)
(1.13627 -0.0233585 4.46707e-22)
(1.1381 -0.0232732 -4.33198e-22)
(1.13993 -0.0231867 -2.37845e-22)
(1.14176 -0.023099 4.75108e-22)
(1.1436 -0.0230101 1.10716e-22)
(1.14543 -0.0229201 -1.29455e-22)
(1.14726 -0.0228289 5.58847e-22)
(1.14909 -0.0227366 -4.7826e-22)
(1.15092 -0.0226431 -4.72025e-23)
(1.15275 -0.0225485 1.53724e-22)
(1.15458 -0.0224527 -2.06718e-22)
(1.1564 -0.0223558 1.18089e-22)
(1.15822 -0.0222577 -2.44139e-22)
(1.16003 -0.0221584 6.4219e-23)
(1.16184 -0.0220579 4.16986e-23)
(1.16364 -0.0219563 -1.00719e-23)
(1.16544 -0.0218534 -1.63231e-23)
(1.16723 -0.0217493 -3.76176e-24)
(1.16901 -0.0216439 -9.96185e-25)
(1.13679 -0.0283373 -4.12279e-22)
(1.13864 -0.0282329 -9.55057e-23)
(1.14049 -0.028127 1.30203e-22)
(1.14234 -0.0280195 4.90253e-23)
(1.1442 -0.0279106 -4.84195e-22)
(1.14605 -0.0278002 4.0138e-23)
(1.1479 -0.0276883 1.23851e-22)
(1.14976 -0.0275749 -4.13076e-22)
(1.15161 -0.0274602 1.30622e-22)
(1.15346 -0.027344 -9.29603e-23)
(1.1553 -0.0272263 2.17102e-22)
(1.15715 -0.0271073 -9.20402e-23)
(1.15899 -0.0269868 -7.26973e-23)
(1.16082 -0.0268648 5.00268e-23)
(1.16265 -0.0267414 -5.27785e-24)
(1.16448 -0.0266165 1.04712e-22)
(1.1663 -0.0264901 -1.96326e-23)
(1.16811 -0.0263622 -1.26715e-23)
(1.16992 -0.0262328 -3.8161e-24)
(1.1374 -0.0332597 1.22532e-21)
(1.13927 -0.0331363 -3.09064e-22)
(1.14115 -0.0330111 5.00967e-22)
(1.14302 -0.032884 -3.72917e-22)
(1.14489 -0.032755 7.47286e-22)
(1.14677 -0.0326242 -5.09059e-22)
(1.14865 -0.0324917 -3.81523e-22)
(1.15052 -0.0323573 2.80846e-22)
(1.1524 -0.0322213 -2.86179e-22)
(1.15427 -0.0320834 2.5718e-22)
(1.15614 -0.0319438 3.36585e-23)
(1.15801 -0.0318025 -9.9609e-23)
(1.15988 -0.0316594 3.01108e-22)
(1.16174 -0.0315146 -1.3577e-22)
(1.16359 -0.0313681 -1.46082e-23)
(1.16544 -0.0312197 -2.69674e-23)
(1.16729 -0.0310696 6.1513e-23)
(1.16913 -0.0309177 2.09082e-24)
(1.17096 -0.030764 1.18127e-23)
(1.13809 -0.0381336 1.00191e-21)
(1.13998 -0.0379915 -7.48796e-22)
(1.14188 -0.0378471 8.67607e-22)
(1.14378 -0.0377004 -5.16223e-22)
(1.14568 -0.0375515 6.8591e-22)
(1.14758 -0.0374004 -3.57235e-22)
(1.14948 -0.0372471 8.71187e-23)
(1.15139 -0.0370918 -1.20273e-22)
(1.15329 -0.0369343 1.93205e-22)
(1.15519 -0.0367747 -6.3191e-23)
(1.15709 -0.0366131 1.65813e-22)
(1.15898 -0.0364494 -1.36523e-22)
(1.16087 -0.0362836 -9.73868e-23)
(1.16276 -0.0361158 -3.40041e-24)
(1.16465 -0.0359459 4.06879e-23)
(1.16653 -0.0357739 -5.11604e-23)
(1.1684 -0.0355998 -2.80323e-23)
(1.17027 -0.0354236 2.78659e-24)
(1.17213 -0.0352453 3.6394e-24)
(1.13885 -0.0429664 2.34721e-22)
(1.14077 -0.0428056 -4.56009e-22)
(1.14269 -0.042642 -7.48636e-23)
(1.14461 -0.0424758 3.97428e-23)
(1.14654 -0.042307 -2.8427e-22)
(1.14847 -0.0421356 -2.22213e-22)
(1.1504 -0.0419617 1.97007e-22)
(1.15233 -0.0417853 1.03309e-22)
(1.15426 -0.0416064 -3.7253e-22)
(1.15619 -0.041425 -1.0823e-22)
(1.15812 -0.0412412 3.04226e-22)
(1.16005 -0.041055 -1.52043e-23)
(1.16197 -0.0408663 3.08162e-23)
(1.16389 -0.0406753 1.9707e-24)
(1.16581 -0.0404818 8.1927e-23)
(1.16772 -0.0402859 -3.67533e-23)
(1.16962 -0.0400875 -1.40334e-23)
(1.17152 -0.0398868 9.16503e-24)
(1.17341 -0.0396835 2.55481e-24)
(1.13966 -0.0477645 1.13813e-22)
(1.14161 -0.0475851 1.12355e-21)
(1.14356 -0.0474025 -9.87508e-23)
(1.14552 -0.0472168 -2.47679e-22)
(1.14747 -0.0470281 -2.91184e-22)
(1.14943 -0.0468364 3.23328e-22)
(1.1514 -0.0466418 -1.84095e-22)
(1.15336 -0.0464442 -5.22219e-22)
(1.15532 -0.0462438 3.0447e-22)
(1.15728 -0.0460405 1.75765e-22)
(1.15924 -0.0458344 -2.49563e-22)
(1.1612 -0.0456254 3.37816e-22)
(1.16316 -0.0454137 -1.57275e-22)
(1.16511 -0.0451992 -2.9051e-23)
(1.16706 -0.0449819 -9.15196e-23)
(1.169 -0.0447618 6.93464e-23)
(1.17094 -0.0445389 -1.12601e-23)
(1.17288 -0.0443132 1.46709e-23)
(1.1748 -0.0440847 -3.8614e-24)
(1.14053 -0.0525338 3.92178e-22)
(1.14251 -0.0523358 -7.38627e-22)
(1.14449 -0.0521343 -8.67763e-23)
(1.14648 -0.0519291 5.99342e-22)
(1.14847 -0.0517205 -4.53522e-23)
(1.15046 -0.0515084 -1.03915e-23)
(1.15246 -0.051293 2.17663e-22)
(1.15445 -0.0510742 -6.35885e-23)
(1.15645 -0.0508521 -1.87323e-23)
(1.15845 -0.0506267 -1.52336e-22)
(1.16044 -0.0503981 3.78365e-23)
(1.16244 -0.0501663 -3.77665e-23)
(1.16443 -0.0499312 -1.31304e-22)
(1.16642 -0.049693 -3.7404e-23)
(1.1684 -0.0494516 7.5826e-23)
(1.17038 -0.049207 -4.58727e-23)
(1.17236 -0.0489593 1.79489e-23)
(1.17433 -0.0487083 -1.15204e-23)
(1.17629 -0.0484542 1.11037e-24)
(1.14144 -0.0572796 1.23783e-21)
(1.14345 -0.0570632 2.14052e-22)
(1.14547 -0.0568426 -3.25573e-22)
(1.14749 -0.056618 -1.75818e-22)
(1.14952 -0.0563894 -8.37974e-23)
(1.15155 -0.0561568 -5.5213e-22)
(1.15358 -0.0559205 2.15534e-23)
(1.15561 -0.0556803 -2.01165e-22)
(1.15764 -0.0554364 2.61003e-22)
(1.15968 -0.0551887 -1.2921e-22)
(1.16171 -0.0549374 2.84624e-22)
(1.16374 -0.0546824 3.8052e-23)
(1.16577 -0.0544238 -8.42539e-23)
(1.1678 -0.0541616 4.90162e-23)
(1.16982 -0.0538958 6.19739e-23)
(1.17184 -0.0536264 -1.16128e-22)
(1.17386 -0.0533534 -1.22477e-23)
(1.17587 -0.0530768 3.48199e-23)
(1.17787 -0.0527966 -1.09462e-23)
(1.14443 -0.0617718 -1.4477e-21)
(1.14649 -0.0615322 3.2762e-22)
(1.14855 -0.061288 3.36912e-22)
(1.15061 -0.0610393 3.42374e-22)
(1.15268 -0.0607863 -4.91716e-22)
(1.15475 -0.0605289 5.67916e-22)
(1.15682 -0.0602671 -4.32333e-22)
(1.15889 -0.0600012 -2.34066e-22)
(1.16097 -0.0597311 -3.05557e-23)
(1.16304 -0.0594568 1.00405e-22)
(1.16511 -0.0591784 -6.96598e-23)
(1.16718 -0.0588959 1.29726e-22)
(1.16925 -0.0586094 7.19467e-23)
(1.17132 -0.0583188 -9.97887e-23)
(1.17338 -0.0580241 6.59831e-23)
(1.17543 -0.0577255 -4.07756e-23)
(1.17748 -0.0574228 -1.22155e-23)
(1.17953 -0.0571161 3.02927e-24)
(1.14545 -0.066466 7.10067e-22)
(1.14754 -0.0662073 1.23584e-22)
(1.14964 -0.0659435 -7.41596e-22)
(1.15175 -0.0656747 -1.29277e-22)
(1.15385 -0.0654009 7.80803e-22)
(1.15597 -0.0651223 3.24476e-23)
(1.15808 -0.0648388 -3.24825e-23)
(1.16019 -0.0645506 4.39025e-22)
(1.16231 -0.0642577 -6.23402e-23)
(1.16442 -0.0639602 -2.92518e-22)
(1.16654 -0.0636581 -2.1038e-22)
(1.16865 -0.0633514 -9.95051e-23)
(1.17076 -0.0630401 2.22595e-23)
(1.17287 -0.0627244 -7.28159e-23)
(1.17498 -0.0624041 -5.38779e-23)
(1.17708 -0.0620794 1.12907e-23)
(1.17917 -0.0617501 2.1834e-23)
(1.18126 -0.0614163 -1.40836e-24)
(1.14649 -0.0711497 -6.19012e-22)
(1.14862 -0.0708718 -5.27479e-22)
(1.15077 -0.0705883 -4.8142e-23)
(1.15291 -0.0702991 1.02916e-21)
(1.15506 -0.0700045 -2.58586e-22)
(1.15722 -0.0697044 1.97632e-22)
(1.15938 -0.069399 4.38167e-22)
(1.16154 -0.0690883 -2.65388e-22)
(1.1637 -0.0687724 -9.66179e-23)
(1.16586 -0.0684513 -4.5325e-23)
(1.16802 -0.0681251 1.73314e-22)
(1.17018 -0.0677938 1.70982e-22)
(1.17233 -0.0674575 1.11108e-22)
(1.17449 -0.0671161 -2.91986e-23)
(1.17664 -0.0667698 3.07594e-23)
(1.17879 -0.0664184 3.85508e-24)
(1.18093 -0.0660621 -1.64993e-23)
(1.18307 -0.0657007 -1.35653e-24)
(1.14754 -0.0758262 1.98333e-22)
(1.14972 -0.0755291 -1.36074e-23)
(1.15191 -0.0752257 8.73431e-22)
(1.1541 -0.0749161 -1.39543e-22)
(1.1563 -0.0746004 -6.20681e-22)
(1.1585 -0.0742787 2.62002e-22)
(1.16071 -0.0739511 2.17752e-22)
(1.16291 -0.0736176 7.00679e-22)
(1.16512 -0.0732783 3.13628e-23)
(1.16733 -0.0729333 2.05005e-22)
(1.16954 -0.0725826 2.91928e-24)
(1.17174 -0.0722263 -1.82026e-22)
(1.17395 -0.0718645 -1.21112e-22)
(1.17615 -0.0714971 4.13836e-23)
(1.17835 -0.0711241 1.36417e-23)
(1.18055 -0.0707456 9.39368e-24)
(1.18274 -0.0703616 -3.3208e-24)
(1.18493 -0.0699721 3.45475e-24)
(1.14861 -0.0804987 4.66403e-22)
(1.15084 -0.0801822 5.40004e-23)
(1.15307 -0.0798589 -6.59738e-22)
(1.15532 -0.0795286 2.66878e-22)
(1.15756 -0.0791917 -4.15184e-22)
(1.15981 -0.0788481 -3.82021e-22)
(1.16207 -0.078498 -2.13373e-22)
(1.16432 -0.0781414 -1.09297e-22)
(1.16658 -0.0777784 1.43178e-22)
(1.16884 -0.0774091 -2.43621e-22)
(1.17109 -0.0770335 -2.99484e-22)
(1.17335 -0.0766518 1.5188e-22)
(1.17561 -0.0762639 -6.30203e-23)
(1.17786 -0.07587 2.08901e-24)
(1.18011 -0.0754699 2.67975e-24)
(1.18236 -0.0750637 -2.74662e-24)
(1.1846 -0.0746514 -7.67854e-24)
(1.18684 -0.0742332 -4.69742e-25)
(1.14968 -0.0851699 3.61477e-22)
(1.15196 -0.084834 2.94356e-22)
(1.15425 -0.0844905 -7.22646e-22)
(1.15654 -0.0841395 4.94647e-22)
(1.15884 -0.0837811 -7.05838e-23)
(1.16114 -0.0834154 4.58862e-22)
(1.16345 -0.0830425 -1.33334e-22)
(1.16575 -0.0826625 3.74346e-24)
(1.16806 -0.0822756 2.81853e-23)
(1.17037 -0.0818818 5.01497e-22)
(1.17268 -0.0814811 9.62258e-23)
(1.17499 -0.0810733 8.45756e-23)
(1.1773 -0.0806587 1.22077e-22)
(1.17961 -0.0802374 6.68996e-23)
(1.18192 -0.0798096 1.14187e-23)
(1.18422 -0.079375 -2.77705e-23)
(1.18651 -0.0789339 -2.09359e-24)
(1.18881 -0.0784861 -3.79057e-25)
(1.15075 -0.0898422 -5.27751e-22)
(1.15309 -0.0894868 -9.68267e-22)
(1.15543 -0.089123 3.55155e-22)
(1.15777 -0.088751 4.5828e-22)
(1.16013 -0.0883709 -1.28953e-22)
(1.16248 -0.0879828 2.38049e-23)
(1.16484 -0.0875868 -7.6317e-22)
(1.1672 -0.087183 -1.8794e-22)
(1.16957 -0.0867716 -2.58507e-24)
(1.17193 -0.0863526 -6.00981e-22)
(1.1743 -0.0859261 -1.82187e-24)
(1.17667 -0.0854919 -1.32243e-22)
(1.17903 -0.0850503 -2.8815e-23)
(1.18139 -0.0846014 -5.92415e-23)
(1.18375 -0.0841451 -4.86658e-23)
(1.18611 -0.0836817 -7.76034e-24)
(1.18846 -0.0832109 1.02778e-23)
(1.19081 -0.082733 4.70779e-25)
(1.15182 -0.094518 3.661e-22)
(1.15421 -0.094143 2.19077e-21)
(1.15661 -0.0937587 -4.66694e-22)
(1.15901 -0.0933655 1.5568e-22)
(1.16142 -0.0929634 -7.04393e-22)
(1.16383 -0.0925526 5.40419e-22)
(1.16625 -0.0921331 -4.01955e-22)
(1.16867 -0.0917051 3.58624e-22)
(1.17109 -0.0912687 -1.78479e-22)
(1.17352 -0.0908239 1.94527e-22)
(1.17594 -0.0903709 9.72821e-23)
(1.17836 -0.0899099 -2.13309e-23)
(1.18079 -0.0894409 1.01352e-22)
(1.18321 -0.0889637 -2.21138e-23)
(1.18562 -0.0884786 2.85165e-23)
(1.18804 -0.0879855 1.97715e-23)
(1.19045 -0.0874844 8.24108e-25)
(1.19286 -0.0869754 -3.14979e-24)
(1.15287 -0.0991993 7.44904e-23)
(1.15532 -0.0988044 1.54052e-22)
(1.15778 -0.0983996 1.51415e-22)
(1.16025 -0.097985 -3.59024e-22)
(1.16271 -0.0975607 2.54547e-22)
(1.16519 -0.0971268 -7.35639e-22)
(1.16767 -0.0966836 -3.02896e-24)
(1.17015 -0.096231 6.23975e-23)
(1.17263 -0.0957693 -5.61301e-24)
(1.17511 -0.0952985 2.4367e-22)
(1.1776 -0.0948187 -2.63781e-22)
(1.18008 -0.0943301 1.41665e-22)
(1.18256 -0.0938328 -1.53568e-23)
(1.18504 -0.0933266 -4.14987e-24)
(1.18752 -0.0928117 -8.96862e-24)
(1.19 -0.0922882 -1.4249e-23)
(1.19247 -0.091756 2.48943e-24)
(1.19494 -0.0912151 3.47353e-24)
(1.15392 -0.103888 -7.86424e-23)
(1.15643 -0.103473 -1.82167e-21)
(1.15895 -0.103048 1.31124e-21)
(1.16148 -0.102611 3.2191e-22)
(1.16401 -0.102164 -7.18667e-23)
(1.16654 -0.101707 -1.99635e-22)
(1.16908 -0.10124 5.32015e-23)
(1.17163 -0.100762 4.39511e-22)
(1.17417 -0.100275 5.5751e-23)
(1.17672 -0.0997775 -1.67339e-23)
(1.17926 -0.0992703 9.05972e-23)
(1.18181 -0.0987536 -1.65754e-22)
(1.18436 -0.0982272 3.00165e-23)
(1.1869 -0.0976914 2.12543e-23)
(1.18944 -0.097146 5.08782e-25)
(1.19198 -0.0965912 -1.93545e-24)
(1.19452 -0.096027 2.85319e-25)
(1.19704 -0.0954533 2.61019e-24)
(1.15494 -0.108585 -8.05854e-22)
(1.15752 -0.10815 1.07684e-21)
(1.1601 -0.107704 -7.67642e-22)
(1.1627 -0.107246 3.43762e-22)
(1.16529 -0.106776 3.29224e-22)
(1.1679 -0.106296 2.73435e-22)
(1.1705 -0.105804 5.18603e-22)
(1.17311 -0.105301 -5.20678e-22)
(1.17572 -0.104787 -2.08059e-22)
(1.17833 -0.104262 3.47176e-22)
(1.18094 -0.103727 -8.5593e-23)
(1.18356 -0.103182 3.57444e-23)
(1.18617 -0.102626 -6.17487e-24)
(1.18878 -0.102059 2.22925e-23)
(1.19138 -0.101483 1.12765e-23)
(1.19399 -0.100896 -1.8417e-24)
(1.19659 -0.100299 -1.73046e-24)
(1.19918 -0.0996911 -1.02011e-23)
(1.15594 -0.113293 -4.95465e-22)
(1.15859 -0.112838 -8.67916e-22)
(1.16124 -0.112371 -5.58926e-22)
(1.1639 -0.111891 -9.78485e-22)
(1.16657 -0.111398 3.48029e-22)
(1.16924 -0.110893 9.79587e-23)
(1.17191 -0.110376 -2.74994e-22)
(1.17459 -0.109848 1.29648e-22)
(1.17727 -0.109307 3.74787e-22)
(1.17995 -0.108755 -2.05099e-22)
(1.18263 -0.108191 -8.84321e-24)
(1.18531 -0.107616 -2.87119e-23)
(1.18799 -0.10703 -4.6589e-23)
(1.19067 -0.106432 -3.38456e-23)
(1.19334 -0.105823 -3.54656e-24)
(1.19601 -0.105203 -2.46127e-24)
(1.19868 -0.104572 1.95945e-23)
(1.20134 -0.103929 1.33062e-25)
(1.15692 -0.118012 6.711e-22)
(1.15964 -0.117537 1.04387e-21)
(1.16236 -0.117049 1.20355e-21)
(1.1651 -0.116546 -1.18413e-21)
(1.16783 -0.116031 -7.45033e-22)
(1.17058 -0.115502 -1.08982e-22)
(1.17332 -0.114959 3.11176e-22)
(1.17607 -0.114404 -3.41235e-22)
(1.17882 -0.113837 -4.19194e-22)
(1.18157 -0.113256 -6.30136e-23)
(1.18432 -0.112663 2.52406e-22)
(1.18707 -0.112058 -1.55865e-24)
(1.18982 -0.11144 3.67245e-23)
(1.19257 -0.11081 2.77308e-23)
(1.19531 -0.110168 -1.16289e-23)
(1.19805 -0.109514 1.08163e-23)
(1.20079 -0.108848 -2.22834e-23)
(1.20352 -0.108169 7.51051e-24)
(1.15787 -0.122744 -3.83686e-22)
(1.16066 -0.12225 -1.06564e-21)
(1.16346 -0.12174 -7.02009e-22)
(1.16627 -0.121215 7.00187e-22)
(1.16908 -0.120676 1.54569e-21)
(1.1719 -0.120122 2.14612e-22)
(1.17472 -0.119554 -3.39414e-22)
(1.17754 -0.118972 3.39128e-23)
(1.18036 -0.118377 4.60875e-22)
(1.18319 -0.117767 -1.14316e-23)
(1.18601 -0.117144 8.50754e-23)
(1.18884 -0.116508 4.67913e-23)
(1.19166 -0.115859 -2.61678e-23)
(1.19448 -0.115196 -9.21224e-24)
(1.1973 -0.114519 -7.5379e-24)
(1.20011 -0.11383 1.72371e-23)
(1.20292 -0.113127 -1.44556e-23)
(1.20572 -0.11241 8.46771e-24)
(1.15878 -0.127491 1.96466e-21)
(1.16166 -0.126976 1.20896e-21)
(1.16454 -0.126445 2.55156e-22)
(1.16742 -0.125898 -6.22871e-22)
(1.17031 -0.125335 -6.67973e-22)
(1.17321 -0.124756 -2.03084e-22)
(1.1761 -0.124162 1.46671e-22)
(1.179 -0.123553 3.76146e-22)
(1.1819 -0.122929 -3.24252e-22)
(1.1848 -0.12229 1.87905e-22)
(1.18771 -0.121636 -2.58892e-22)
(1.19061 -0.120968 1.67181e-23)
(1.1935 -0.120285 -1.36925e-24)
(1.1964 -0.119588 8.20337e-24)
(1.19929 -0.118876 4.37313e-24)
(1.20218 -0.11815 2.7707e-24)
(1.20506 -0.117409 2.58523e-24)
(1.20793 -0.116653 -1.54636e-23)
(1.15967 -0.132252 -2.03153e-21)
(1.16262 -0.131717 -5.02174e-22)
(1.16558 -0.131165 -1.53686e-21)
(1.16855 -0.130595 1.46484e-21)
(1.17152 -0.130008 -6.27237e-22)
(1.1745 -0.129404 -4.74546e-22)
(1.17747 -0.128784 -7.09175e-23)
(1.18045 -0.128147 1.6839e-22)
(1.18344 -0.127494 4.90816e-22)
(1.18642 -0.126824 -2.70734e-22)
(1.1894 -0.126139 5.78325e-23)
(1.19237 -0.125439 -9.37813e-23)
(1.19535 -0.124722 -1.7084e-24)
(1.19832 -0.123989 -3.80959e-23)
(1.20129 -0.123241 1.75211e-23)
(1.20426 -0.122476 8.32792e-24)
(1.20721 -0.121696 7.06736e-24)
(1.21016 -0.120899 -7.23363e-24)
(1.16051 -0.13703 1.20466e-21)
(1.16355 -0.136475 -1.40287e-21)
(1.1666 -0.135901 1.90215e-21)
(1.16965 -0.135309 -1.7566e-21)
(1.17271 -0.134698 6.2929e-22)
(1.17577 -0.134069 -8.14429e-23)
(1.17883 -0.133421 -1.09591e-22)
(1.1819 -0.132756 -5.45102e-22)
(1.18496 -0.132072 -8.67035e-23)
(1.18802 -0.131371 1.5414e-22)
(1.19108 -0.130654 -1.07351e-23)
(1.19414 -0.12992 5.20376e-23)
(1.1972 -0.129168 5.50702e-24)
(1.20025 -0.128399 3.31262e-23)
(1.2033 -0.127612 3.64604e-23)
(1.20634 -0.126808 -7.9498e-23)
(1.20938 -0.125986 6.48146e-23)
(1.2124 -0.125147 1.48442e-23)
(1.16132 -0.141825 -8.67001e-24)
(1.16445 -0.14125 1.3991e-21)
(1.16759 -0.140655 -5.43785e-22)
(1.17073 -0.14004 1.50449e-21)
(1.17388 -0.139405 -1.44263e-21)
(1.17702 -0.13875 1.08403e-21)
(1.18017 -0.138076 4.53347e-22)
(1.18332 -0.137382 3.08125e-22)
(1.18648 -0.13667 -4.84382e-22)
(1.18962 -0.135941 2.96991e-23)
(1.19277 -0.135188 5.14685e-23)
(1.19591 -0.134416 -2.3298e-23)
(1.19905 -0.133627 -1.64682e-23)
(1.20219 -0.132819 -4.10498e-23)
(1.20532 -0.131992 -1.0619e-22)
(1.20844 -0.131146 1.1404e-22)
(1.21156 -0.130281 -3.22266e-23)
(1.21466 -0.129396 -3.89646e-23)
(1.1621 -0.146638 3.92162e-23)
(1.16532 -0.146044 -1.27117e-21)
(1.16855 -0.145428 4.72834e-22)
(1.17178 -0.14479 -7.91665e-22)
(1.17502 -0.14413 1.1235e-21)
(1.17826 -0.143449 -7.1666e-22)
(1.18149 -0.142747 1.87646e-23)
(1.18473 -0.142024 2.28661e-22)
(1.18797 -0.141281 1.28523e-22)
(1.19121 -0.140518 3.60613e-23)
(1.19445 -0.139731 3.7336e-23)
(1.19768 -0.138924 2.42089e-23)
(1.20091 -0.138096 -8.10415e-23)
(1.20413 -0.137249 1.02808e-22)
(1.20734 -0.13638 6.58905e-23)
(1.21055 -0.13549 -1.58164e-23)
(1.21374 -0.134579 -4.69356e-23)
(1.21693 -0.133646 3.67553e-23)
(1.16283 -0.151471 -2.31092e-21)
(1.16615 -0.150858 1.05286e-21)
(1.16947 -0.15022 -7.93195e-22)
(1.1728 -0.149559 3.45342e-22)
(1.17613 -0.148875 2.98017e-22)
(1.17947 -0.148167 6.23062e-22)
(1.1828 -0.147436 1.45959e-22)
(1.18614 -0.146683 -2.20849e-22)
(1.18947 -0.145906 2.71812e-23)
(1.1928 -0.145106 -2.08823e-22)
(1.19613 -0.144286 -2.02937e-23)
(1.19945 -0.143443 -1.80175e-23)
(1.20277 -0.142577 9.59874e-23)
(1.20607 -0.141688 -7.24487e-23)
(1.20937 -0.140776 -1.34988e-22)
(1.21266 -0.13984 -8.92795e-24)
(1.21594 -0.13888 9.48507e-24)
(1.21921 -0.137897 1.32436e-23)
(1.16352 -0.156324 1.56995e-21)
(1.16694 -0.155692 3.9336e-22)
(1.17037 -0.155034 4.63009e-22)
(1.1738 -0.15435 6.43664e-22)
(1.17723 -0.153641 -7.83586e-22)
(1.18066 -0.152906 2.62776e-22)
(1.18409 -0.152147 -4.57483e-22)
(1.18752 -0.151362 -1.66253e-22)
(1.19095 -0.150553 -1.31255e-22)
(1.19438 -0.149719 9.40106e-23)
(1.1978 -0.148861 1.73105e-23)
(1.20122 -0.147979 -9.23017e-24)
(1.20462 -0.147071 1.26845e-25)
(1.20802 -0.146138 1.4863e-23)
(1.21141 -0.145179 2.4975e-22)
(1.21479 -0.144195 -4.28969e-23)
(1.21815 -0.143184 -2.62158e-23)
(1.22149 -0.142146 -1.85521e-23)
(1.16417 -0.161199 -7.5272e-22)
(1.1677 -0.160549 -5.74979e-22)
(1.17123 -0.15987 -2.90681e-23)
(1.17476 -0.159163 -1.22939e-21)
(1.1783 -0.158429 -3.91246e-22)
(1.18183 -0.157667 -5.24941e-23)
(1.18537 -0.156878 -4.38519e-23)
(1.1889 -0.156063 2.71607e-22)
(1.19243 -0.15522 2.32144e-22)
(1.19595 -0.15435 -2.06297e-23)
(1.19947 -0.153453 -8.91601e-23)
(1.20298 -0.152529 1.13203e-22)
(1.20648 -0.151577 1.05696e-22)
(1.20997 -0.150598 1.77531e-22)
(1.21345 -0.14959 -3.47188e-23)
(1.21692 -0.148554 7.06789e-24)
(1.22036 -0.147488 4.53956e-23)
(1.22379 -0.146392 -2.32618e-23)
(1.16478 -0.166098 2.36099e-21)
(1.16842 -0.165429 -1.57028e-22)
(1.17206 -0.16473 -9.47874e-22)
(1.1757 -0.164 1.66045e-22)
(1.17934 -0.163241 -5.06155e-22)
(1.18298 -0.162452 -2.197e-22)
(1.18662 -0.161633 2.16112e-22)
(1.19026 -0.160784 -6.87135e-23)
(1.19389 -0.159906 -5.13593e-23)
(1.19752 -0.158999 7.79762e-24)
(1.20114 -0.158061 -4.60321e-24)
(1.20475 -0.157094 -1.33473e-22)
(1.20835 -0.156096 -1.37864e-22)
(1.21193 -0.155068 -2.55489e-22)
(1.2155 -0.154008 -1.50386e-22)
(1.21906 -0.152916 1.8455e-22)
(1.22259 -0.151792 -1.8315e-22)
(1.2261 -0.150634 1.39633e-23)
(1.16535 -0.171021 -1.92253e-21)
(1.1691 -0.170334 1.2076e-21)
(1.17285 -0.169615 5.01389e-22)
(1.17661 -0.168862 -7.63821e-22)
(1.18036 -0.168078 1.16449e-21)
(1.18412 -0.16726 7.58599e-22)
(1.18787 -0.166411 -1.247e-22)
(1.19161 -0.165529 -2.58159e-22)
(1.19535 -0.164614 6.46294e-23)
(1.19908 -0.163667 8.48383e-24)
(1.20281 -0.162687 7.11208e-23)
(1.20652 -0.161674 6.64349e-23)
(1.21021 -0.160627 1.58987e-22)
(1.2139 -0.159547 1.23742e-22)
(1.21756 -0.158431 7.60969e-23)
(1.2212 -0.15728 -3.71179e-22)
(1.22482 -0.156092 5.08377e-23)
(1.22841 -0.154868 3.53295e-23)
(1.16588 -0.175969 2.39832e-22)
(1.16975 -0.175266 -1.14609e-21)
(1.17362 -0.174527 2.98212e-22)
(1.17749 -0.173752 1.95754e-21)
(1.18137 -0.172941 -4.42016e-22)
(1.18523 -0.172095 -7.92187e-22)
(1.1891 -0.171214 -1.03992e-22)
(1.19296 -0.170297 -1.13414e-23)
(1.19681 -0.169344 -3.59494e-23)
(1.20065 -0.168355 -4.29674e-23)
(1.20447 -0.167331 8.78365e-23)
(1.20829 -0.166269 -1.67155e-22)
(1.21209 -0.16517 -5.64011e-22)
(1.21587 -0.164033 -5.82404e-23)
(1.21962 -0.162858 2.51143e-22)
(1.22336 -0.161643 -5.26756e-23)
(1.22706 -0.160388 2.6821e-22)
(1.23074 -0.159091 -6.76584e-23)
(1.16637 -0.180946 -4.36848e-23)
(1.17036 -0.180226 1.26857e-21)
(1.17436 -0.179467 2.60687e-22)
(1.17835 -0.178669 -8.21042e-22)
(1.18235 -0.177833 -1.96969e-22)
(1.18633 -0.176957 -1.80521e-22)
(1.19032 -0.176043 1.17909e-22)
(1.19429 -0.175089 6.59004e-23)
(1.19825 -0.174095 -3.25066e-23)
(1.20221 -0.173063 -8.79921e-24)
(1.20614 -0.171991 2.59297e-23)
(1.21006 -0.170878 4.58201e-22)
(1.21396 -0.169723 6.40224e-22)
(1.21784 -0.168526 -7.30632e-23)
(1.22169 -0.167287 -8.44392e-23)
(1.22552 -0.166004 1.04462e-22)
(1.22931 -0.164675 -1.16109e-22)
(1.23306 -0.163301 1.72273e-23)
(1.16682 -0.185952 2.06167e-21)
(1.17095 -0.185216 -2.80104e-21)
(1.17507 -0.184438 -8.84019e-22)
(1.17919 -0.183617 6.52074e-22)
(1.18331 -0.182753 6.19246e-22)
(1.18742 -0.181847 -6.05931e-23)
(1.19153 -0.180898 -2.97104e-22)
(1.19562 -0.179906 -8.75494e-24)
(1.1997 -0.17887 -4.8555e-23)
(1.20376 -0.177791 4.44099e-23)
(1.20781 -0.176668 -1.39575e-22)
(1.21184 -0.1755 -3.22582e-23)
(1.21585 -0.174285 2.87224e-23)
(1.21982 -0.173024 2.25622e-22)
(1.22377 -0.171715 -4.59334e-23)
(1.22768 -0.170358 5.26466e-22)
(1.23156 -0.168951 -2.38211e-22)
(1.23539 -0.167492 3.39188e-23)
(1.16724 -0.190989 -1.63049e-21)
(1.1715 -0.190238 2.15657e-22)
(1.17576 -0.18944 1.27603e-21)
(1.18001 -0.188595 -1.50635e-21)
(1.18426 -0.187704 -7.52957e-22)
(1.1885 -0.186767 2.95193e-22)
(1.19273 -0.185782 3.84107e-22)
(1.19695 -0.18475 1.10343e-22)
(1.20114 -0.183672 8.80512e-23)
(1.20533 -0.182541 -7.18398e-23)
(1.20949 -0.181362 2.09625e-22)
(1.21363 -0.180133 -2.81211e-22)
(1.21773 -0.178854 -2.94447e-22)
(1.22181 -0.177524 -1.02537e-22)
(1.22585 -0.176141 -3.47115e-22)
(1.22986 -0.174703 -2.33392e-22)
(1.23381 -0.173211 3.16673e-22)
(1.23772 -0.171662 1.58341e-23)
(1.16763 -0.19606 2.45111e-21)
(1.17203 -0.195293 7.79155e-22)
(1.17642 -0.194475 -6.72745e-22)
(1.18081 -0.193607 9.94525e-22)
(1.1852 -0.192687 1.3075e-21)
(1.18957 -0.191715 -2.78923e-22)
(1.19392 -0.190692 -1.37672e-22)
(1.19827 -0.189617 -9.80676e-24)
(1.20259 -0.188491 -5.25761e-23)
(1.20689 -0.187306 2.3522e-23)
(1.21117 -0.186069 -2.09465e-22)
(1.21542 -0.184776 -4.09372e-22)
(1.21963 -0.183428 -1.12354e-22)
(1.22381 -0.182023 3.9244e-22)
(1.22794 -0.180559 4.19634e-22)
(1.23203 -0.179035 -2.91568e-22)
(1.23607 -0.17745 -3.03708e-23)
(1.24005 -0.175803 -1.4417e-22)
(1.16799 -0.201166 -3.46089e-21)
(1.17253 -0.200383 1.00859e-21)
(1.17707 -0.199545 2.22675e-22)
(1.1816 -0.198651 -5.06981e-22)
(1.18612 -0.197701 -6.31504e-22)
(1.19063 -0.196694 3.08334e-22)
(1.19512 -0.19563 -2.26941e-22)
(1.19959 -0.194507 -5.14906e-23)
(1.20404 -0.193326 3.519e-23)
(1.20846 -0.192087 -4.44153e-23)
(1.21285 -0.190787 3.81169e-22)
(1.21721 -0.189426 3.73473e-22)
(1.22153 -0.188003 -3.60755e-22)
(1.2258 -0.186517 -6.57275e-22)
(1.23003 -0.184966 -5.83354e-22)
(1.2342 -0.183349 -3.40773e-22)
(1.23832 -0.181665 2.21838e-23)
(1.24236 -0.179912 1.59418e-24)
(1.16832 -0.206308 1.26317e-21)
(1.17302 -0.20551 -7.91734e-22)
(1.1777 -0.204651 -2.4579e-22)
(1.18238 -0.203731 -4.64974e-22)
(1.18704 -0.202748 -5.75869e-23)
(1.19169 -0.201703 -2.87151e-23)
(1.19631 -0.200595 1.43381e-22)
(1.20091 -0.199422 6.31989e-23)
(1.20549 -0.198185 5.27555e-23)
(1.21003 -0.196884 1.16955e-22)
(1.21454 -0.195516 -3.66399e-22)
(1.21901 -0.19408 -3.74525e-22)
(1.22343 -0.192576 -4.87439e-23)
(1.2278 -0.191002 4.6385e-22)
(1.23212 -0.189358 8.99809e-22)
(1.23637 -0.18764 6.80696e-22)
(1.24056 -0.185849 4.3437e-23)
(1.24467 -0.183982 8.02963e-23)
(1.16864 -0.211489 9.62885e-22)
(1.17348 -0.210675 7.68228e-22)
(1.17832 -0.209794 -5.45447e-22)
(1.18315 -0.208845 2.87826e-22)
(1.18795 -0.207828 -4.67769e-22)
(1.19274 -0.206742 2.75024e-22)
(1.19751 -0.205586 -6.50676e-23)
(1.20224 -0.20436 2.39801e-22)
(1.20694 -0.203063 -4.25853e-22)
(1.21161 -0.201694 2.49929e-23)
(1.21623 -0.200252 -4.93906e-22)
(1.22081 -0.198735 5.19511e-22)
(1.22534 -0.197143 1.36075e-21)
(1.2298 -0.195475 -1.29458e-21)
(1.2342 -0.193729 -2.25232e-22)
(1.23853 -0.191903 -5.49756e-22)
(1.24278 -0.189996 4.25344e-23)
(1.24695 -0.188007 1.34029e-23)
(1.16893 -0.21671 1.94815e-22)
(1.17394 -0.215878 -1.12946e-21)
(1.17893 -0.214973 1.03995e-21)
(1.18391 -0.213994 5.55014e-22)
(1.18887 -0.212939 4.96846e-23)
(1.1938 -0.211809 7.18745e-23)
(1.1987 -0.210601 -6.04281e-23)
(1.20357 -0.209317 -3.25233e-22)
(1.2084 -0.207954 7.52781e-22)
(1.21319 -0.206512 1.61144e-22)
(1.21793 -0.20499 1.05748e-21)
(1.22261 -0.203386 -1.78863e-22)
(1.22724 -0.2017 -1.59307e-21)
(1.23179 -0.199929 1.07716e-21)
(1.23628 -0.198074 -7.39809e-22)
(1.24068 -0.196131 1.21202e-22)
(1.24499 -0.194101 -1.84741e-22)
(1.24921 -0.19198 7.85711e-23)
(1.16921 -0.221971 -1.05564e-21)
(1.17438 -0.221121 1.0823e-21)
(1.17953 -0.22019 5.57371e-23)
(1.18467 -0.219177 -7.10932e-22)
(1.18978 -0.218081 5.48201e-22)
(1.19486 -0.216902 -2.46531e-22)
(1.1999 -0.215639 2.21231e-22)
(1.2049 -0.21429 -7.97327e-23)
(1.20986 -0.212856 -6.75352e-22)
(1.21477 -0.211335 2.09223e-22)
(1.21962 -0.209727 -3.37465e-22)
(1.22441 -0.208028 -4.72403e-22)
(1.22913 -0.20624 8.96099e-22)
(1.23378 -0.20436 6.90206e-22)
(1.23834 -0.202387 -9.89898e-23)
(1.24281 -0.200319 4.16442e-23)
(1.24717 -0.198156 -1.86297e-22)
(1.25143 -0.195895 -1.20657e-22)
(1.16948 -0.227273 2.26058e-21)
(1.17482 -0.226403 2.84347e-22)
(1.18013 -0.225442 -1.33432e-21)
(1.18543 -0.224392 9.42612e-22)
(1.19069 -0.223252 5.8703e-23)
(1.19591 -0.22202 1.66311e-23)
(1.2011 -0.220695 -1.19925e-22)
(1.20624 -0.219277 5.48608e-22)
(1.21132 -0.217766 6.68214e-22)
(1.21635 -0.216159 5.7674e-22)
(1.22132 -0.214456 -1.43578e-22)
(1.22621 -0.212656 2.41424e-22)
(1.23102 -0.210758 9.66155e-22)
(1.23575 -0.20876 -1.75755e-21)
(1.24038 -0.206661 2.55376e-22)
(1.2449 -0.20446 -1.07658e-22)
(1.24932 -0.202155 1.12263e-22)
(1.25361 -0.199745 1.36416e-23)
(1.16974 -0.232617 6.39983e-24)
(1.17525 -0.231722 -1.25521e-21)
(1.18073 -0.23073 1.43659e-21)
(1.18619 -0.229638 -8.75426e-22)
(1.1916 -0.228448 -3.9555e-22)
(1.19698 -0.227158 1.23143e-23)
(1.2023 -0.225767 1.19901e-23)
(1.20757 -0.224274 -4.00612e-22)
(1.21278 -0.222678 -9.0978e-22)
(1.21793 -0.220978 -2.0886e-21)
(1.223 -0.219174 -1.16337e-22)
(1.22799 -0.217264 5.28515e-22)
(1.23289 -0.215248 -1.30663e-22)
(1.23769 -0.213124 1.58255e-21)
(1.24239 -0.210891 5.87334e-22)
(1.24697 -0.208547 8.44242e-23)
(1.25142 -0.206091 9.26805e-23)
(1.25574 -0.203523 -2.18352e-22)
(1.17569 -0.237078 -1.3893e-21)
(1.18134 -0.236049 -2.77073e-22)
(1.18695 -0.234912 1.85161e-22)
(1.19252 -0.233666 1.5448e-22)
(1.19804 -0.232312 -9.33327e-23)
(1.2035 -0.230848 -3.03909e-22)
(1.20891 -0.229274 -4.11738e-23)
(1.21424 -0.227586 1.82541e-22)
(1.2195 -0.225786 1.99781e-21)
(1.22467 -0.223873 -2.56521e-22)
(1.22975 -0.221846 -7.72093e-22)
(1.23474 -0.219703 -1.57017e-21)
(1.23961 -0.217444 -6.41156e-22)
(1.24436 -0.215068 -6.33289e-22)
(1.24899 -0.212573 -3.24979e-22)
(1.25347 -0.209958 -1.42815e-22)
(1.25781 -0.207222 5.74866e-23)
(1.19343 -0.238902 9.70993e-23)
(1.1991 -0.237477 2.24744e-22)
(1.2047 -0.235933 3.34546e-22)
(1.21023 -0.234269 -1.5016e-22)