/*--------------------------------*- C++ -*----------------------------------*\
  =========                 |
  \\      /  F ield         | OpenFOAM: The Open Source CFD Toolbox
   \\    /   O peration     | Website:  https://openfoam.org
    \\  /    A nd           | Version:  7
     \\/     M anipulation  |
\*---------------------------------------------------------------------------*/
FoamFile
{
    version     2.0;
    format      ascii;
    class       surfaceScalarField;
    location    "15";
    object      phi;
}
// * * * * * * * * * * * * * * * * * * * * * * * * * * * * * * * * * * * * * //

dimensions      [0 3 -1 0 0 0 0];

internalField   nonuniform List<scalar> 
11850
(
-3.9541e-05
3.95409e-05
9.52758e-11
-0.000115408
7.58668e-05
1.14081e-10
-0.000211665
9.62574e-05
7.15357e-11
-0.000320112
0.000108446
9.06065e-12
-0.000437857
0.000117745
-6.53358e-11
-0.000564314
0.000126457
-1.5527e-10
0.000135677
-2.67557e-10
-3.87651e-05
7.8306e-05
-0.000113225
0.000150326
-0.000207504
0.000190537
-0.000313291
0.000214233
-0.000427468
0.000231922
-0.00054915
0.000248139
0.000265007
-3.72622e-05
0.000115568
-0.000108966
0.00022203
-0.000199359
0.000280931
-0.000299921
0.000314795
-0.000407098
0.0003391
-0.000519444
0.000360485
0.000381973
-3.51061e-05
0.000150674
-0.00010281
0.000289733
-0.000187539
0.00036566
-0.000280484
0.00040774
-0.000377491
0.000436106
-0.000476332
0.000459326
0.000481165
-3.24023e-05
0.000183077
-9.50114e-05
0.000352342
-0.000172482
0.000443131
-0.000255661
0.000490919
-0.00033967
0.000520115
-0.000421353
0.000541008
0.000557936
-2.9281e-05
0.000212358
-8.58846e-05
0.000408946
-0.000154724
0.00051197
-0.00022627
0.000562465
-0.000294842
0.000588687
-0.000356263
0.000602429
-0.000406757
0.000608431
0.000607278
-2.58892e-05
0.000238247
-7.57839e-05
0.000458841
-0.000134864
0.000571051
-0.000193206
0.000620806
-0.000244281
0.000639762
-0.000282835
0.000640983
-0.000303854
0.00062945
0.000605368
-2.2382e-05
0.000260629
-6.50809e-05
0.00050154
-0.000113523
0.000619493
-0.000157365
0.000664648
-0.000189198
0.000671595
-0.000202639
0.000654425
-0.000191369
0.000618179
0.000562566
-1.89121e-05
0.000279541
-5.414e-05
0.000536768
-9.12929e-05
0.000656646
-0.000119565
0.00069292
-0.000130607
0.000682637
-0.000116813
0.000640631
-7.04191e-05
0.000571786
0.000475146
-1.56201e-05
0.000295161
-4.32911e-05
0.000564439
-6.86914e-05
0.000682046
-8.04564e-05
0.000704685
-6.91809e-05
0.000671361
-2.58435e-05
0.000597293
5.90332e-05
0.000486909
0.000338371
-1.26246e-05
0.000307786
-3.28025e-05
0.000584617
-4.61059e-05
0.000695349
-4.04359e-05
0.000699015
-5.11987e-06
0.000636045
7.06458e-05
0.000521528
0.000198444
0.000359111
0.0001458
-1.00133e-05
0.000317799
-2.28541e-05
0.000597457
-2.37419e-05
0.000696237
4.5798e-07
0.000674815
6.20519e-05
0.000574451
0.000174079
0.000409501
0.00035083
0.00018236
0.00060777
-0.00011114
-0.000476891
-7.83469e-06
0.000325634
-1.35104e-05
0.000603133
-1.59304e-06
0.00068432
4.25922e-05
0.00063063
0.000133489
0.000483554
0.000287028
0.000255962
0.000520681
-5.1293e-05
0.000852522
-0.000442981
-0.000923528
-6.09515e-06
0.000331729
-4.68171e-06
0.00060172
2.07214e-05
0.000658917
8.68901e-05
0.000564461
0.000211223
0.000359222
0.000413181
5.4004e-05
0.000713487
-0.0003516
0.00113154
-0.00086103
-0.00147339
-4.76539e-06
0.000336494
3.75799e-06
0.000593196
4.37337e-05
0.000618941
0.00013479
0.000473405
0.000298081
0.000195931
0.000557038
-0.000204952
0.000934681
-0.000729243
0.00144845
-0.0013748
-0.00212914
-3.70521e-06
0.000340199
1.21738e-05
0.000577317
6.84118e-05
0.000562703
0.000188283
0.000353534
0.000397538
-1.33243e-05
0.000723232
-0.000530647
0.00118787
-0.00119388
0.00180116
-0.00198809
0.00255356
-0.00288155
-0.00382997
-2.74707e-06
0.000342947
2.11787e-05
0.000553391
9.60006e-05
0.000487881
0.000249805
0.000199729
0.000513324
-0.000276844
0.000915367
-0.000932689
0.00147252
-0.00175103
0.00217899
-0.00269456
0.00300393
-0.0037065
-0.0047243
-1.69352e-06
0.00034464
3.13736e-05
0.000520324
0.000127984
0.000391271
0.000322052
5.66146e-06
0.000648755
-0.000603547
0.0011344
-0.00141833
0.00178166
-0.0023983
0.00256198
-0.00347488
0.00342238
-0.00456689
0.00430154
-0.00560346
-0.00653702
-2.06251e-07
0.000344846
4.34816e-05
0.000476636
0.000165998
0.000268755
0.000407649
-0.00023599
0.000805762
-0.00100166
0.00137691
-0.00198948
0.00210099
-0.00312238
0.0029238
-0.0042977
0.00377694
-0.00542002
0.00459959
-0.00642611
-0.00728974
1.47953e-06
0.000343367
5.82513e-05
0.000419865
0.000211715
0.000115292
0.000508688
-0.000532963
0.000983717
-0.00147669
0.00163395
-0.00263971
0.0024104
-0.00389883
0.00323797
-0.00512526
0.0040455
-0.00622755
0.00478507
-0.00716569
0.00543689
-0.00794156
-0.00858334
4.10551e-06
0.000339261
7.65739e-05
0.000347396
0.00026651
-7.46441e-05
0.000625565
-0.000892019
0.00117736
-0.00202848
0.00189004
-0.00335239
0.00268649
-0.00469529
0.00348265
-0.00592142
0.00421797
-0.00696288
0.00486447
-0.00781218
0.00542137
-0.00849846
-0.0090658
7.50255e-06
0.000331759
9.89178e-05
0.000255981
0.000331749
-0.000307475
0.000758199
-0.00131847
0.00138006
-0.00265034
0.00213097
-0.0041033
0.00291467
-0.00547899
0.0036526
-0.00665935
0.00430357
-0.00761385
0.00485997
-0.00836859
0.00533527
-0.00897376
0.00575131
-0.00948184
-0.00993547
1.20491e-05
0.00031971
0.000126099
0.000141931
0.000407952
-0.000589328
0.000902868
-0.00181338
0.00157978
-0.00332725
0.0023402
-0.00486373
0.00308332
-0.0062221
0.00374747
-0.0073235
0.00431321
-0.00817959
0.00478943
-0.0088448
0.00519802
-0.00938235
0.00556254
-0.00984636
-0.0102754
1.78984e-05
0.000301811
0.00015865
1.17907e-06
0.000494697
-0.000925375
0.00105364
-0.00237233
0.00176424
-0.00403785
0.00250666
-0.00560615
0.00319012
-0.00690556
0.00377531
-0.0079087
0.0042621
-0.00866638
0.00467052
-0.00925322
0.00502591
-0.00973774
0.00535035
-0.0101708
0.00565968
-0.0105847
-0.0109979
2.51834e-05
0.000276628
0.000196932
-0.000170569
0.000590257
-0.0013187
0.00120264
-0.00298471
0.00192269
-0.00475791
0.00262502
-0.00630848
0.00323887
-0.00751941
0.00374727
-0.00841709
0.00416476
-0.00908386
0.00451744
-0.0096059
0.00483057
-0.0100509
0.00512304
-0.0104633
0.00540689
-0.0108686
0.00568858
-0.0112796
-0.0117012
3.4034e-05
0.000242594
0.000241026
-0.000377562
0.000691464
-0.00176914
0.00134139
-0.00363463
0.00204783
-0.00546435
0.00269521
-0.00695585
0.00323685
-0.00806106
0.00367484
-0.00885508
0.00403343
-0.00944245
0.00434079
-0.00991327
0.00461983
-0.0103299
0.00488573
-0.0107292
0.00514714
-0.01113
0.00540834
-0.0115408
0.00567155
-0.0119645
-0.0124027
4.45984e-05
0.000197995
0.000290576
-0.000623539
0.000793924
-0.00227249
0.00146234
-0.00430305
0.0021363
-0.00613831
0.00272076
-0.00754031
0.00319258
-0.00853288
0.00356838
-0.00923088
0.00387775
-0.00975182
0.00414807
-0.0101836
0.00439881
-0.0105806
0.00464154
-0.0109719
0.00488222
-0.0113707
0.00512362
-0.0117822
0.00536707
-0.0122079
0.00561296
-0.0126486
-0.0131023
5.70588e-05
0.000140937
0.000344636
-0.000911116
0.000892557
-0.00282041
0.00156008
-0.00497057
0.00218814
-0.00676637
0.00270717
-0.00805934
0.00311444
-0.00894016
0.00343657
-0.009553
0.00370496
-0.0100202
0.00394446
-0.0104231
0.00417078
-0.010807
0.00439237
-0.0111935
0.00461321
-0.0115915
0.00483505
-0.012004
0.00505878
-0.0124316
0.00528468
-0.0128745
0.00551405
-0.0133317
-0.0138072
7.1613e-05
6.93236e-05
0.000401648
-0.00124115
0.000982328
-0.00340109
0.0016317
-0.00561995
0.00220572
-0.00734038
0.00266061
-0.00851424
0.00300993
-0.00928947
0.00328624
-0.00982931
0.00352029
-0.0102543
0.00373343
-0.0106362
0.00393782
-0.0110113
0.00413941
-0.0113951
0.00434082
-0.0117929
0.00454317
-0.0122064
0.00474704
-0.0126355
0.00495282
-0.0130803
0.00516142
-0.0135403
0.0053721
-0.0140179
0.00558951
-0.0145034
-0.0150351
8.84004e-05
-1.90767e-05
0.000459574
-0.00161233
0.00105898
-0.00400049
0.0016766
-0.00623757
0.00219274
-0.00785652
0.00258713
-0.00890863
0.00288534
-0.00958768
0.00312265
-0.0100666
0.00332743
-0.010459
0.00351727
-0.0108261
0.00370126
-0.0111953
0.00388347
-0.0115773
0.0040656
-0.0119751
0.00424839
-0.0123891
0.0044323
-0.0128194
0.0046177
-0.0132657
0.00480534
-0.0137279
0.00499485
-0.0142074
0.00518972
-0.0146982
-0.0152286
0.00538323
0.000107382
-0.000126459
0.00051611
-0.00202105
0.00111954
-0.00460391
0.00169583
-0.00681387
0.00215346
-0.00831415
0.0024922
-0.00924737
0.00274581
-0.00984128
0.00294972
-0.0102705
0.00312896
-0.0106383
0.00329753
-0.0109946
0.003462
-0.0113598
0.00362513
-0.0117404
0.003788
-0.0121379
0.00395116
-0.0125523
0.00411496
-0.0129832
0.0042798
-0.0134305
0.00444624
-0.0138943
0.00461419
-0.0143753
0.00478633
-0.0148704
-0.0153994
0.00495708
0.000128243
-0.000254702
0.000568895
-0.00246171
0.00116251
-0.00519753
0.00169147
-0.00734284
0.00209216
-0.00871484
0.00238057
-0.00953578
0.00259536
-0.0100561
0.00277029
-0.0104455
0.00292665
-0.0107947
0.00307523
-0.0111432
0.00322069
-0.0115053
0.00336485
-0.0118846
0.00350844
-0.0122815
0.00365186
-0.0126957
0.00379544
-0.0131268
0.00393955
-0.0135746
0.00408461
-0.0140394
0.00423072
-0.0145215
0.00437984
-0.0150195
-0.0155471
0.00452754
0.000150374
-0.000405075
0.000615702
-0.00292703
0.00118767
-0.00576949
0.00166616
-0.00782133
0.00201284
-0.00906152
0.00225621
-0.00977915
0.0024371
-0.010237
0.00258642
-0.0105948
0.00272174
-0.01093
0.00285113
-0.0112726
0.00297783
-0.011632
0.00310305
-0.0120098
0.00322731
-0.0124058
0.00335092
-0.0128193
0.00347418
-0.0132501
0.00359741
-0.0136978
0.00372096
-0.0141629
0.00384499
-0.0146455
0.00397091
-0.0151454
-0.0156714
0.00409528
0.000172962
-0.000578037
0.000654613
-0.00340868
0.00119572
-0.0063106
0.00162271
-0.00824832
0.00191908
-0.00935788
0.00212232
-0.0099824
0.00227338
-0.010388
0.00239962
-0.010721
0.0025151
-0.0110455
0.00262578
-0.0113833
0.00273384
-0.01174
0.00284013
-0.0121161
0.00294501
-0.0125107
0.00304875
-0.0129231
0.00315161
-0.0133529
0.00325388
-0.0138001
0.00335579
-0.0142649
0.00345758
-0.0147473
0.00356018
-0.015248
-0.0157722
0.00366098
0.000195132
-0.000773169
0.000684205
-0.00389776
0.00118793
-0.00681432
0.0015639
-0.0086243
0.00181396
-0.00960794
0.00198151
-0.0101499
0.00210598
-0.0105125
0.00221094
-0.010826
0.00230739
-0.0111419
0.00239962
-0.0114755
0.00248911
-0.0118295
0.00257645
-0.0122034
0.00266193
-0.0125961
0.00274577
-0.0130069
0.00282819
-0.0134353
0.00290942
-0.0138813
0.00298964
-0.0143451
0.00306907
-0.0148267
0.0031483
-0.0153273
-0.0158493
0.00322534
0.000216054
-0.000989223
0.000703653
-0.00438536
0.00116587
-0.00727653
0.00149237
-0.0089508
0.00170011
-0.00981568
0.00183579
-0.0102856
0.00193621
-0.0106129
0.00202118
-0.010911
0.00209912
-0.0112199
0.00217305
-0.0115494
0.002244
-0.0119005
0.00231239
-0.0122718
0.00237846
-0.0126622
0.00244239
-0.0130708
0.00250436
-0.0134973
0.00256454
-0.0139415
0.00262304
-0.0144036
0.00268008
-0.0148837
0.00273592
-0.0153831
-0.0159025
0.00278909
0.000234984
-0.00122421
0.000712722
-0.0048631
0.00113124
-0.00769505
0.0014105
-0.00923006
0.00157972
-0.0099849
0.00168676
-0.0103927
0.00176507
-0.0106912
0.00183093
-0.0109768
0.00189068
-0.0112796
0.00194641
-0.0116052
0.00199885
-0.0119529
0.00204831
-0.0123213
0.00209499
-0.0127089
0.00213903
-0.0131149
0.00218057
-0.0135388
0.00221971
-0.0139807
0.00225653
-0.0144404
0.00229117
-0.0149184
0.00232368
-0.0154156
-0.0159317
0.00235294
0.000251263
-0.00147547
0.00071168
-0.00532351
0.00108574
-0.00806911
0.0013204
-0.00946472
0.00145458
-0.0101191
0.00153565
-0.0104737
0.00159331
-0.0107489
0.00164068
-0.0110242
0.00168243
-0.0113213
0.00172004
-0.0116428
0.001754
-0.0119869
0.00178458
-0.0123518
0.00181191
-0.0127362
0.00183611
-0.0131391
0.00185727
-0.01356
0.00187544
-0.0139988
0.00189064
-0.0144556
0.00190296
-0.0149307
0.00191225
-0.0154249
-0.0159371
0.00191763
0.000264315
-0.00173979
0.000701148
-0.00576035
0.001031
-0.00839896
0.0012239
-0.00965762
0.00132615
-0.0102213
0.00138341
-0.010531
0.00142151
-0.010787
0.0014508
-0.0110535
0.00147471
-0.0113453
0.00149425
-0.0116623
0.00150979
-0.0120025
0.00152153
-0.0123636
0.00152958
-0.0127443
0.00153403
-0.0131435
0.0015349
-0.0135609
0.0015322
-0.0139961
0.0015259
-0.0144493
0.00151601
-0.0149208
0.00150228
-0.0154112
-0.0159187
0.00148388
0.00027367
-0.00201346
0.000682006
-0.00616868
0.000968546
-0.0086855
0.00112257
-0.00981164
0.00119563
-0.0102944
0.0012308
-0.0105662
0.00125012
-0.0108063
0.00126164
-0.011065
0.0012678
-0.0113514
0.00126934
-0.0116638
0.00126654
-0.0119996
0.00125953
-0.0123566
0.00124841
-0.0127331
0.0012332
-0.0131283
0.00121391
-0.0135416
0.00119048
-0.0139727
0.00116283
-0.0144217
0.00113088
-0.0148889
0.00109434
-0.0153746
-0.0158768
0.00105243
0.000277432
-0.00229089
0.000652734
-0.00654398
0.000896721
-0.00892949
0.00101463
-0.00992955
0.001061
-0.0103408
0.00107558
-0.0105807
0.00107686
-0.0108076
0.00107097
-0.0110591
0.00105965
-0.0113401
0.00104342
-0.0116476
0.00102251
-0.0119787
0.000997008
-0.0123311
0.000966974
-0.0127031
0.000932401
-0.0130938
0.000893248
-0.0135024
0.000849412
-0.0139289
0.000800784
-0.014373
0.000747197
-0.0148353
0.000688112
-0.0153156
-0.015812
0.000623327
0.00027839
-0.00256928
0.000619475
-0.00688507
0.000822893
-0.00913291
0.000907396
-0.010014
0.000928992
-0.0103624
0.000923912
-0.0105757
0.000907421
-0.0107911
0.000884123
-0.0110358
0.000855267
-0.0113112
0.000821228
-0.0116136
0.000782169
-0.0119397
0.000738156
-0.0122871
0.000689211
-0.0126542
0.000635285
-0.0130398
0.000576289
-0.0134434
0.000512069
-0.0138646
0.000442509
-0.0143035
0.000367539
-0.0147603
0.000286105
-0.0152341
-0.0157243
0.000198385
0.000275201
-0.00284448
0.000580734
-0.0071906
0.000745271
-0.00929744
0.000798736
-0.0100675
0.000797239
-0.0103609
0.000773303
-0.0105517
0.000739359
-0.0107571
0.000698803
-0.0109953
0.000652525
-0.011265
0.00060079
-0.0115618
0.000543724
-0.0118826
0.000481349
-0.0122247
0.000413646
-0.0125865
0.000340565
-0.0129667
0.000261929
-0.0133648
0.000177548
-0.0137803
8.71529e-05
-0.0142131
-9.61198e-06
-0.0146635
-0.000111455
-0.0151323
-0.0156133
-0.000222402
0.00026808
-0.00311256
0.000537404
-0.00745993
0.000664845
-0.00942489
0.000689422
-0.0100921
0.00066624
-0.0103377
0.000624091
-0.0105096
0.000572948
-0.010706
0.000515273
-0.0109376
0.000451702
-0.0112014
0.0003824
-0.0114925
0.00030747
-0.0118077
0.000226912
-0.0121441
0.000140579
-0.0125001
4.84422e-05
-0.0128746
-4.95105e-05
-0.0132669
-0.000153612
-0.0136762
-0.000264159
-0.0141025
-0.000381055
-0.0145466
-0.000505913
-0.0150074
-0.015481
-0.000638246
0.000257349
-0.00336991
0.000490333
-0.00769291
0.000582501
-0.00951705
0.000580103
-0.0100897
0.000536393
-0.010294
0.000476537
-0.0104497
0.000408407
-0.0106378
0.000333753
-0.0108629
0.000253015
-0.0111207
0.000166271
-0.0114058
7.35465e-05
-0.011715
-2.5102e-05
-0.0120455
-0.000129478
-0.0123957
-0.000240109
-0.012764
-0.000357215
-0.0131497
-0.000480979
-0.0135524
-0.000611498
-0.013972
-0.000749155
-0.014409
-0.000895032
-0.0148615
-0.0153272
-0.00104888
0.000243418
-0.00361332
0.000440305
-0.0078898
0.000499002
-0.00957575
0.000471319
-0.010062
0.000408031
-0.0102307
0.00033088
-0.0103726
0.000245928
-0.0105529
0.000154426
-0.0107714
5.64978e-05
-0.0110227
-4.73884e-05
-0.0113019
-0.000157247
-0.0116051
-0.000273431
-0.0119293
-0.000396123
-0.012273
-0.000525299
-0.0126348
-0.000661277
-0.0130138
-0.000804283
-0.0134094
-0.000954526
-0.0138218
-0.00111249
-0.014251
-0.00127886
-0.0146952
-0.0151522
-0.00145379
0.00022674
-0.00384006
0.000388042
-0.0080511
0.000414999
-0.00960271
0.000363512
-0.0100105
0.000281434
-0.0101486
0.000187301
-0.0102784
8.55568e-05
-0.0104512
-2.27866e-05
-0.0106631
-0.000136901
-0.0109086
-0.000257651
-0.0111812
-0.000384946
-0.0114778
-0.000518753
-0.0117955
-0.000659289
-0.0121325
-0.000806691
-0.0124874
-0.000961223
-0.0128592
-0.00112315
-0.0132475
-0.00129277
-0.0136521
-0.00147057
-0.0140732
-0.00165706
-0.0145087
-0.0149567
-0.00185253
0.000207777
-0.00404784
0.000334196
-0.00817752
0.000331026
-0.00959954
0.000257042
-0.00993654
0.000156797
-0.0100484
4.57066e-05
-0.0101673
-7.20892e-05
-0.0103334
-0.000196322
-0.0105388
-0.000327391
-0.0107775
-0.000465024
-0.0110435
-0.000609363
-0.0113335
-0.000760496
-0.0116444
-0.000918608
-0.0119744
-0.00108392
-0.0123221
-0.00125669
-0.0126865
-0.00143722
-0.0130669
-0.00162585
-0.0134635
-0.00182304
-0.013876
-0.00202923
-0.0143025
-0.0147413
-0.00224472
0.000186978
-0.00423482
0.000279357
-0.0082699
0.000247555
-0.00956774
0.000152209
-0.00984119
3.38435e-05
-0.00993001
-9.27784e-05
-0.0100407
-0.000226651
-0.0101995
-0.000367363
-0.0103981
-0.000514836
-0.0106301
-0.000669067
-0.0108893
-0.000830184
-0.0111723
-0.000998352
-0.0114762
-0.00117377
-0.011799
-0.00135668
-0.0121392
-0.00154737
-0.0124958
-0.00174614
-0.0128682
-0.00195337
-0.0132563
-0.00216955
-0.0136598
-0.002395
-0.0140771
-0.0145063
-0.00263
0.000164763
-0.00439958
0.000224039
-0.00832917
0.000164999
-0.0095087
4.91385e-05
-0.00972533
-8.55674e-05
-0.0097953
-0.000228565
-0.00989773
-0.000378531
-0.0100495
-0.000535336
-0.0102413
-0.000698956
-0.0104665
-0.000869507
-0.0107188
-0.00104714
-0.0109947
-0.00123205
-0.0112913
-0.00142447
-0.0116066
-0.00162466
-0.011939
-0.00183292
-0.0122875
-0.00204957
-0.0126515
-0.00227502
-0.0130308
-0.00250976
-0.0134251
-0.00275404
-0.0138328
-0.0142523
-0.00300803
0.000141533
-0.00454112
0.000168686
-0.00835633
8.36718e-05
-0.00942368
-5.15031e-05
-0.00959016
-0.000202506
-0.0096443
-0.00036162
-0.00973861
-0.000527397
-0.00988374
-0.000700007
-0.0100687
-0.000879519
-0.0102869
-0.00106611
-0.0105322
-0.00125997
-0.0108009
-0.00146133
-0.0110899
-0.00167044
-0.0113975
-0.00188758
-0.0117218
-0.00211306
-0.012062
-0.00234721
-0.0124174
-0.00259048
-0.0127875
-0.00284336
-0.0131722
-0.00310602
-0.0135701
-0.0139798
-0.00337851
0.000117675
-0.00465879
0.000113738
-0.00835239
2.39468e-06
-0.00931234
-0.000149618
-0.00943814
-0.000316903
-0.00947701
-0.000491711
-0.0095638
-0.000673041
-0.00970241
-0.000861185
-0.00988057
-0.00105631
-0.0100918
-0.00125865
-0.0103298
-0.00146843
-0.0105911
-0.00168592
-0.0108724
-0.00191139
-0.011172
-0.00214514
-0.0114881
-0.00238748
-0.0118197
-0.00263875
-0.0121661
-0.00289943
-0.0125269
-0.00317003
-0.0129016
-0.00345064
-0.0132895
-0.0136893
-0.00374114
9.35244e-05
-0.00475232
5.98574e-05
-0.00831872
-7.37944e-05
-0.00917869
-0.000245327
-0.00926661
-0.000428515
-0.00929382
-0.000618691
-0.00937363
-0.000815288
-0.00950581
-0.00101868
-0.00967718
-0.00122912
-0.00988138
-0.0014469
-0.010112
-0.00167228
-0.0103657
-0.00190558
-0.0106391
-0.00214707
-0.0109305
-0.00239708
-0.0112381
-0.00265592
-0.0115609
-0.00292392
-0.0118981
-0.0032016
-0.0122492
-0.0034895
-0.0126137
-0.00378762
-0.0129914
-0.0133813
-0.00409563
6.93073e-05
-0.00482162
8.55902e-06
-0.00825797
-0.000149158
-0.00902097
-0.000338478
-0.00907729
-0.000537204
-0.0090951
-0.00074242
-0.00916841
-0.000953976
-0.00929426
-0.00117231
-0.00945885
-0.00139774
-0.00965595
-0.00163064
-0.00987915
-0.0018713
-0.010125
-0.00212005
-0.0103904
-0.00237721
-0.0106733
-0.00264313
-0.0109722
-0.00291809
-0.0112859
-0.00320245
-0.0116137
-0.00349673
-0.0119549
-0.00380152
-0.0123089
-0.00411669
-0.0126762
-0.0130563
-0.00444168
4.52064e-05
-0.00486683
-4.63833e-05
-0.00816638
-0.000222823
-0.00884453
-0.000428891
-0.00887122
-0.000642815
-0.00888117
-0.00086276
-0.00894847
-0.00108895
-0.00906807
-0.00132189
-0.00922591
-0.001562
-0.00941584
-0.00180966
-0.00963148
-0.00206524
-0.00986945
-0.0023291
-0.0101265
-0.00260157
-0.0104009
-0.00288301
-0.0106907
-0.00317372
-0.0109952
-0.00347406
-0.0113134
-0.00378457
-0.0116444
-0.00410585
-0.0119877
-0.0044376
-0.0123445
-0.0127149
-0.00477899
2.18338e-05
-0.00488866
-9.85226e-05
-0.00804603
-0.000294438
-0.00864861
-0.000516476
-0.00864919
-0.000745229
-0.00865242
-0.00097958
-0.00871412
-0.00122006
-0.00882759
-0.00146727
-0.0089787
-0.00172168
-0.00916143
-0.00198376
-0.0093694
-0.0022539
-0.00959931
-0.00253249
-0.00984794
-0.0028199
-0.0101134
-0.00311648
-0.0103941
-0.00342256
-0.0106891
-0.00373849
-0.0109975
-0.00406484
-0.011318
-0.00440223
-0.0116503
-0.00475018
-0.0119965
-0.0123577
-0.0051073
9.22818e-07
-0.00488959
-0.000148329
-0.00789677
-0.000363808
-0.00843314
-0.000601179
-0.00841182
-0.000844341
-0.00840926
-0.00109275
-0.00846571
-0.00134716
-0.00857318
-0.00160827
-0.00871759
-0.00187663
-0.00889308
-0.00215274
-0.00909328
-0.00243706
-0.009315
-0.00273
-0.009555
-0.00303195
-0.00981149
-0.00334329
-0.0100828
-0.00366433
-0.0103681
-0.00399546
-0.0106663
-0.00433723
-0.0109763
-0.00469027
-0.0112972
-0.0050541
-0.0116327
-0.0119853
-0.00542649
-2.64477e-05
-0.00486314
-0.000196555
-0.00772667
-0.00043069
-0.008199
-0.000682908
-0.0081596
-0.000940059
-0.00815211
-0.00120216
-0.00820361
-0.00147011
-0.00830522
-0.00174474
-0.00844297
-0.00202664
-0.00861117
-0.0023164
-0.00880353
-0.0026145
-0.0090169
-0.00292139
-0.00924811
-0.00323749
-0.00949539
-0.00356318
-0.00975712
-0.00389881
-0.0100325
-0.00424478
-0.0103204
-0.00460158
-0.0106195
-0.00496971
-0.0109291
-0.00534901
-0.0112534
-0.0115975
-0.00573684
-5.07237e-05
-0.00481241
-0.000243094
-0.0075343
-0.000494962
-0.00794713
-0.00076157
-0.00789299
-0.00103229
-0.00788138
-0.00130767
-0.00792823
-0.00158878
-0.00802411
-0.00187651
-0.00815524
-0.00217156
-0.00831613
-0.00247455
-0.00850053
-0.00278601
-0.00870543
-0.00310644
-0.00892767
-0.00343628
-0.00916556
-0.00377591
-0.00941749
-0.00412576
-0.00968261
-0.00448628
-0.00995983
-0.0048579
-0.0102479
-0.00524091
-0.0105461
-0.00563499
-0.0108593
-0.0111962
-0.00603633
-7.36776e-05
-0.00473874
-0.00028785
-0.00732012
-0.000556588
-0.00767839
-0.000837093
-0.00761249
-0.00112096
-0.00759752
-0.0014092
-0.00763999
-0.00170303
-0.00773028
-0.00200344
-0.00785483
-0.0023112
-0.00800837
-0.00262699
-0.00818474
-0.0029514
-0.00838103
-0.00328493
-0.00859414
-0.00362806
-0.00882243
-0.00398121
-0.00906434
-0.00434488
-0.00931894
-0.00471965
-0.00958506
-0.00510589
-0.00986163
-0.00550372
-0.0101482
-0.0059138
-0.0104493
-0.0107905
-0.00631951
-9.88325e-05
-0.0046399
-0.000334519
-0.00708444
-0.0006191
-0.00739381
-0.000912726
-0.00731886
-0.00120908
-0.00730116
-0.00150957
-0.0073395
-0.00181552
-0.00742432
-0.00212802
-0.00754233
-0.00244792
-0.00768847
-0.00277594
-0.00785672
-0.0031127
-0.00804427
-0.00345876
-0.00824808
-0.00381461
-0.00846658
-0.00418071
-0.00869823
-0.00455762
-0.00894203
-0.00494596
-0.00919673
-0.00534602
-0.00946156
-0.0057565
-0.00973776
-0.0061749
-0.0100309
-0.0103383
-0.00662708
-0.000119622
-0.00452028
-0.000375301
-0.00682876
-0.000675039
-0.00709408
-0.000981516
-0.00701238
-0.00129012
-0.00699256
-0.00160258
-0.00702704
-0.00192037
-0.00710652
-0.00224466
-0.00721804
-0.00257637
-0.00735676
-0.00291629
-0.00751681
-0.00326509
-0.00769547
-0.00362334
-0.00788982
-0.00399159
-0.00809834
-0.00437034
-0.00831948
-0.00476015
-0.00855222
-0.00516146
-0.00879542
-0.00557409
-0.00904893
-0.00599756
-0.00931429
-0.00643588
-0.00959254
-0.00987566
-0.0068985
-0.000139474
-0.00438081
-0.000414112
-0.00655412
-0.000728222
-0.00677997
-0.001047
-0.0066936
-0.00136736
-0.0066722
-0.00169131
-0.0067031
-0.00202045
-0.00677738
-0.00235605
-0.00688245
-0.00269909
-0.00701372
-0.00305043
-0.00716547
-0.00341077
-0.00733513
-0.00378073
-0.00751985
-0.00416089
-0.00771818
-0.0045518
-0.00792857
-0.00495402
-0.00814999
-0.00536793
-0.00838151
-0.00579355
-0.00862332
-0.00623156
-0.00887628
-0.00668534
-0.00913876
-0.00940466
-0.00715634
-0.00015835
-0.00422246
-0.000450897
-0.00626157
-0.000778593
-0.00645227
-0.00110911
-0.00636308
-0.00144071
-0.0063406
-0.00177564
-0.00636817
-0.00211563
-0.00643738
-0.00246203
-0.00653605
-0.00281591
-0.00665984
-0.00317816
-0.00680322
-0.00354954
-0.00696375
-0.00393071
-0.00713868
-0.00432227
-0.00732662
-0.0047248
-0.00752604
-0.00513881
-0.00773598
-0.00556463
-0.00795569
-0.00600259
-0.00818536
-0.00645397
-0.0084249
-0.0069209
-0.00867183
-0.00892283
-0.00740273
-0.000176215
-0.00404624
-0.000485624
-0.00595217
-0.000826128
-0.00611177
-0.00116781
-0.00602141
-0.00151011
-0.0059983
-0.00185549
-0.0060228
-0.00220581
-0.00608706
-0.00256249
-0.00617938
-0.00292668
-0.00629565
-0.00329932
-0.00643057
-0.00368122
-0.00658185
-0.00407308
-0.00674683
-0.00447552
-0.00692418
-0.00488915
-0.00711241
-0.00531449
-0.00731065
-0.00575191
-0.00751827
-0.00620195
-0.00773532
-0.00666575
-0.0079611
-0.00714445
-0.00819313
-0.00842972
-0.00763757
-0.000193038
-0.0038532
-0.000518264
-0.00562694
-0.0008708
-0.00575923
-0.00122304
-0.00566917
-0.00157549
-0.00564584
-0.00193077
-0.00566752
-0.00229088
-0.00572695
-0.0026573
-0.00581296
-0.00303126
-0.00592169
-0.00341376
-0.00604808
-0.00380564
-0.00618997
-0.00420763
-0.00634483
-0.0046204
-0.00651141
-0.00504456
-0.00668825
-0.00548061
-0.00687459
-0.00592904
-0.00706984
-0.00639049
-0.00727387
-0.0068659
-0.00748569
-0.00735593
-0.00770309
-0.0079252
-0.00786045
-0.000208787
-0.00364442
-0.000548792
-0.00528693
-0.000912587
-0.00539543
-0.00127478
-0.00530698
-0.0016368
-0.00528382
-0.00200142
-0.0053029
-0.00237075
-0.00535763
-0.00274635
-0.00543735
-0.00312953
-0.0055385
-0.00352133
-0.00565628
-0.00392263
-0.00578867
-0.0043342
-0.00593326
-0.00475674
-0.00608887
-0.00519085
-0.00625414
-0.0056371
-0.00642835
-0.006096
-0.00661094
-0.0065682
-0.00680167
-0.00705445
-0.00699944
-0.00755528
-0.00720226
-0.00740962
-0.00807086
-0.000223433
-0.00342098
-0.000577191
-0.00493318
-0.000951469
-0.00502116
-0.00132298
-0.00493547
-0.00169398
-0.00491282
-0.00206735
-0.00492953
-0.00244532
-0.00497965
-0.00282954
-0.00505313
-0.00322136
-0.00514668
-0.00362188
-0.00525577
-0.00403202
-0.00537853
-0.00445259
-0.0055127
-0.00488429
-0.00565716
-0.00532778
-0.00581065
-0.00578361
-0.00597251
-0.00625237
-0.00614219
-0.00673466
-0.00631937
-0.00723113
-0.00650297
-0.00774227
-0.00669113
-0.00688344
-0.00826845
-0.000236949
-0.00318404
-0.000603441
-0.00456668
-0.00098743
-0.00463717
-0.00136761
-0.00455529
-0.00174697
-0.00453346
-0.00212849
-0.00454802
-0.00251451
-0.00459363
-0.00290675
-0.0046609
-0.00330663
-0.0047468
-0.00371527
-0.00484712
-0.00413366
-0.00496014
-0.00456262
-0.00508374
-0.0050029
-0.00521689
-0.00545514
-0.00535841
-0.00591996
-0.0055077
-0.00639792
-0.00566422
-0.00688964
-0.00582765
-0.00739566
-0.00599694
-0.00791644
-0.00617035
-0.00634743
-0.00845245
-0.000249308
-0.00293473
-0.000627531
-0.00418846
-0.00102046
-0.00424424
-0.00140865
-0.00416709
-0.00179573
-0.00414637
-0.00218478
-0.00415897
-0.00257824
-0.00420017
-0.00297789
-0.00426124
-0.00338522
-0.00433948
-0.00380138
-0.00443095
-0.00422741
-0.00453412
-0.00466414
-0.004647
-0.00511236
-0.00476867
-0.00557273
-0.00489803
-0.00604589
-0.00503454
-0.00653241
-0.0051777
-0.00703289
-0.00532717
-0.00754784
-0.00548198
-0.00807768
-0.00564052
-0.00580221
-0.0086229
-0.000260582
-0.00267415
-0.000649461
-0.00379958
-0.00105054
-0.00384316
-0.00144606
-0.00377157
-0.00184022
-0.00375222
-0.00223616
-0.00376303
-0.00263644
-0.00379989
-0.00304288
-0.0038548
-0.00345702
-0.00392533
-0.00388009
-0.00400789
-0.00431311
-0.00410109
-0.00475699
-0.00420312
-0.00521251
-0.00431315
-0.00568036
-0.00443018
-0.00616119
-0.00455371
-0.00665559
-0.00468329
-0.00716415
-0.00481862
-0.00768737
-0.00495876
-0.00822568
-0.00510221
-0.00524841
-0.00877948
-0.000270841
-0.00240331
-0.000669232
-0.00340119
-0.00107766
-0.00343474
-0.00147982
-0.00336941
-0.00188039
-0.00335165
-0.00228257
-0.00336085
-0.00268902
-0.00339344
-0.00310162
-0.00344221
-0.00352195
-0.003505
-0.00395127
-0.00357858
-0.00439065
-0.00366171
-0.00484101
-0.00375276
-0.00530317
-0.003851
-0.00577783
-0.00395551
-0.00626567
-0.00406588
-0.00676727
-0.00418169
-0.00728324
-0.00430266
-0.00781412
-0.00442787
-0.00836037
-0.00455597
-0.00468705
-0.00892172
-0.000280034
-0.00212327
-0.000686839
-0.00299439
-0.00110181
-0.00301976
-0.0015099
-0.00296132
-0.0019162
-0.00294536
-0.00232397
-0.00295308
-0.00273594
-0.00298146
-0.00315404
-0.00302411
-0.00357991
-0.00307913
-0.00401482
-0.00314366
-0.0044599
-0.00321663
-0.00491608
-0.00329659
-0.00538419
-0.00338289
-0.00586497
-0.00347473
-0.0063591
-0.00357175
-0.00686721
-0.00367358
-0.00738989
-0.00377997
-0.00792771
-0.00389005
-0.00848098
-0.0040027
-0.00411829
-0.00904974
-0.000288127
-0.00183514
-0.000702275
-0.00258024
-0.00112299
-0.00259905
-0.00153629
-0.00254802
-0.00194762
-0.00253402
-0.0023603
-0.0025404
-0.00277713
-0.00256463
-0.00320007
-0.00260117
-0.00363082
-0.00264839
-0.00407066
-0.00270382
-0.00452076
-0.00276653
-0.00498206
-0.00283529
-0.00545543
-0.00290952
-0.00594161
-0.00298854
-0.00644132
-0.00307204
-0.00695518
-0.00315972
-0.00748383
-0.00325132
-0.00802779
-0.00334609
-0.00858736
-0.00344313
-0.00354278
-0.00916287
-0.000295098
-0.00154005
-0.000715532
-0.00215981
-0.00114117
-0.00217341
-0.00155895
-0.00213023
-0.00197463
-0.00211835
-0.00239153
-0.0021235
-0.00281254
-0.00214362
-0.00323966
-0.00217405
-0.0036746
-0.00221345
-0.00411869
-0.00225972
-0.00457311
-0.00231211
-0.00503884
-0.00236956
-0.00551675
-0.00243161
-0.00600761
-0.00249768
-0.00651214
-0.00256752
-0.007031
-0.00264086
-0.00756482
-0.00271749
-0.00811413
-0.00279679
-0.00867925
-0.00287801
-0.00296141
-0.00926062
-0.000300935
-0.00123911
-0.000726604
-0.00173414
-0.00115635
-0.00174367
-0.00157788
-0.0017087
-0.00199718
-0.00169905
-0.00241762
-0.00170305
-0.00284213
-0.00171911
-0.00327274
-0.00174345
-0.00371119
-0.00177499
-0.00415884
-0.00181207
-0.00461689
-0.00185406
-0.00508632
-0.00190013
-0.00556804
-0.0019499
-0.00606283
-0.0020029
-0.00657141
-0.00205893
-0.00709448
-0.00211779
-0.00763267
-0.0021793
-0.00818649
-0.00224296
-0.00875633
-0.00230817
-0.00237512
-0.00934262
-0.000305626
-0.000933486
-0.000735485
-0.00130428
-0.00116852
-0.00131064
-0.00159306
-0.00128416
-0.00201527
-0.00127684
-0.00243855
-0.00127978
-0.00286586
-0.00129179
-0.00329927
-0.00131004
-0.00374054
-0.00133372
-0.00419105
-0.00136156
-0.00465201
-0.0013931
-0.00512442
-0.00142772
-0.0056092
-0.00146512
-0.00610715
-0.00150495
-0.006619