/*--------------------------------*- C++ -*----------------------------------*\
  =========                 |
  \\      /  F ield         | OpenFOAM: The Open Source CFD Toolbox
   \\    /   O peration     | Website:  https://openfoam.org
    \\  /    A nd           | Version:  7
     \\/     M anipulation  |
\*---------------------------------------------------------------------------*/
FoamFile
{
    version     2.0;
    format      ascii;
    class       volVectorField;
    location    "15";
    object      U;
}
// * * * * * * * * * * * * * * * * * * * * * * * * * * * * * * * * * * * * * //

dimensions      [0 1 -1 0 0 0 0];

internalField   nonuniform List<vector> 
6050
(
(-0.00710644 0.00273251 -2.17891e-20)
(-0.0303513 0.00471498 -2.58596e-20)
(-0.0619808 0.00528044 3.19271e-21)
(-0.0902584 0.00528975 -8.17206e-21)
(-0.116572 0.00511083 3.95471e-20)
(-0.140123 0.00492097 1.24395e-20)
(-0.161645 0.00477541 -1.73253e-20)
(-0.00739517 0.00813602 1.11571e-21)
(-0.030561 0.0140555 -1.63097e-20)
(-0.0617346 0.0157477 -3.38673e-20)
(-0.0894054 0.0157725 2.72081e-20)
(-0.114959 0.0152292 1.73024e-20)
(-0.137597 0.0146476 2.6379e-21)
(-0.158019 0.0141934 5.01014e-20)
(-0.00796392 0.01336 -6.19244e-21)
(-0.0309789 0.0231326 -2.33528e-20)
(-0.061255 0.0259373 3.3211e-20)
(-0.0877267 0.0259681 2.55101e-20)
(-0.11178 0.0250418 -8.56223e-20)
(-0.132619 0.0240339 1.10849e-20)
(-0.150882 0.0232203 -8.42273e-20)
(-0.00879617 0.0182952 3.11935e-20)
(-0.0316027 0.0317803 1.23729e-19)
(-0.0605665 0.0356703 -4.00603e-20)
(-0.0852738 0.0356912 -8.13647e-20)
(-0.107121 0.0343522 -4.68256e-20)
(-0.125322 0.0328648 6.48982e-20)
(-0.140441 0.0316141 8.09867e-20)
(-0.00986881 0.0228454 -8.48506e-20)
(-0.032428 0.0398447 -2.41767e-20)
(-0.0597015 0.0447767 7.18113e-20)
(-0.0821163 0.0447636 3.72633e-20)
(-0.101095 0.042974 1.81862e-19)
(-0.115885 0.0409408 -1.68041e-19)
(-0.126963 0.0391576 -9.40612e-20)
(-0.011154 0.0269311 5.52257e-20)
(-0.0334478 0.0471882 4.41866e-21)
(-0.0586966 0.0530977 -1.33737e-19)
(-0.0783325 0.0530175 -6.58278e-20)
(-0.0938319 0.0507338 -2.147e-19)
(-0.104497 0.0480823 -7.78982e-21)
(-0.110728 0.0456643 -1.11501e-20)
(-0.112575 0.0436301 -1.85056e-20)
(-0.012621 0.0304927 -1.41151e-19)
(-0.034652 0.0536932 -2.4808e-19)
(-0.0575866 0.0604897 8.89149e-20)
(-0.0739986 0.0602979 -2.45569e-20)
(-0.0854499 0.0574733 1.93274e-19)
(-0.0913299 0.0541322 1.85215e-19)
(-0.0919694 0.0509821 -6.3423e-20)
(-0.087347 0.0482061 8.78772e-20)
(-0.0142386 0.0334924 1.04613e-19)
(-0.0360252 0.0592646 1.14231e-19)
(-0.0563973 0.0668262 7.85794e-20)
(-0.0691745 0.0664647 2.78411e-19)
(-0.0760379 0.0630515 -6.14319e-20)
(-0.0764922 0.0589573 9.27518e-20)
(-0.0708088 0.0549949 1.20322e-19)
(-0.058899 0.0513857 -1.51082e-19)
(-0.0159773 0.0359142 -5.13176e-20)
(-0.0375456 0.0638318 2.99951e-20)
(-0.0551376 0.0720005 -2.38892e-19)
(-0.0638873 0.0713953 -1.36092e-19)
(-0.0656245 0.0673466 -1.08227e-19)
(-0.0599887 0.0624511 -6.01901e-20)
(-0.0471896 0.0576258 -2.94252e-19)
(-0.0270623 0.0531392 5.30898e-20)
(-0.0178105 0.037763 1.95988e-19)
(-0.0391821 0.0673487 2.2262e-19)
(-0.0537896 0.0759286 5.80611e-20)
(-0.0581127 0.074988 2.36978e-19)
(-0.0541468 0.0702604 6.5647e-20)
(-0.0416674 0.064538 1.46246e-19)
(-0.0208024 0.0588438 1.64118e-19)
(0.00871862 0.0535061 1.51092e-19)
(-0.019716 0.039062 -1.2278e-19)
(-0.0408911 0.0697942 -2.02186e-19)
(-0.052298 0.0785508 3.49275e-19)
(-0.0517533 0.0771662 -3.56072e-19)
(-0.0414143 0.0717245 -2.53333e-19)
(-0.0211654 0.0651827 -1.08271e-19)
(0.00898897 0.058678 -4.71607e-20)
(0.0494657 0.052616 -2.58476e-19)
(-0.0216762 0.0398497 1.14923e-19)
(-0.0426127 0.0711698 8.95944e-20)
(-0.0505574 0.0798352 -4.05784e-19)
(-0.0446135 0.0778832 -1.35763e-19)
(-0.0270678 0.0717086 1.43157e-19)
(0.00214728 0.0644064 -7.53802e-20)
(0.0432104 0.0572425 2.04312e-19)
(0.0967029 0.0507247 1.93753e-19)
(0.163071 0.0450276 -2.52799e-19)
(-0.023677 0.0401748 -3.68259e-19)
(-0.0442645 0.0714974 -3.52641e-19)
(-0.0484002 0.0797803 2.59812e-19)
(-0.0363751 0.0771304 1.63844e-19)
(-0.0105378 0.0702352 8.69389e-20)
(0.0292198 0.0623103 -7.06263e-20)
(0.0833091 0.0547721 -1.26827e-19)
(0.1524 0.0482618 6.36017e-20)
(0.236681 0.0430533 8.02498e-21)
(-0.0257068 0.0400923 5.6951e-20)
(-0.0457351 0.0708151 3.70274e-19)
(-0.0455802 0.0784151 -1.15021e-19)
(-0.026572 0.0749474 -1.47088e-20)
(0.00899114 0.0673986 -1.13432e-19)
(0.0613495 0.0591052 -4.25172e-20)
(0.131118 0.0516671 3.7974e-20)
(0.218758 0.0458757 1.24141e-19)
(0.323546 0.0420676 3.45864e-20)
(-0.0277541 0.0396584 3.21562e-19)
(-0.0468805 0.0691775 -9.18431e-20)
(-0.0417564 0.0757994 -2.3315e-19)
(-0.0145644 0.0714297 3.08459e-19)
(0.0326039 0.0633863 2.71246e-19)
(0.100165 0.0551503 1.95059e-19)
(0.188701 0.0485361 1.78639e-19)
(0.297758 0.0444475 -6.12954e-20)
(0.424563 0.0431388 1.12993e-19)
(-0.0298013 0.0389233 -1.01457e-19)
(-0.0475206 0.0666546 5.51807e-20)
(-0.0364848 0.0720256 1.35093e-19)
(0.000477543 0.0667379 -3.74248e-19)
(0.0616538 0.0585025 -6.32725e-20)
(0.147531 0.0509874 -3.15209e-19)
(0.258014 0.046212 1.2792e-19)
(0.390452 0.0450251 -3.05357e-19)
(0.538495 0.0472805 1.18904e-19)
(0.692735 0.051929 -2.80617e-19)
(-0.0318168 0.0379255 3.2109e-21)
(-0.0474276 0.06332 2.45269e-19)
(-0.0292139 0.0672245 -6.41654e-20)
(0.0195741 0.0611128 -2.17829e-20)
(0.097713 0.0531952 7.16043e-20)
(0.205325 0.0473629 2.45795e-19)
(0.340355 0.0457059 -1.20407e-19)
(0.496101 0.0486302 -1.08158e-19)
(0.661254 0.0551118 7.12765e-20)
(0.8225 0.063136 1.58375e-19)
(-0.0337497 0.036688 -2.71153e-20)
(-0.0463203 0.0592511 -2.38402e-20)
(-0.0192816 0.0615666 2.73128e-19)
(0.0439172 0.0548844 1.40355e-19)
(0.142458 0.0480739 -1.26742e-19)
(0.275068 0.0452083 3.6372e-20)
(0.435652 0.0480542 4.00111e-20)
(0.61149 0.0559431 3.53513e-19)
(0.78607 0.0665314 -2.97042e-19)
(0.944085 0.0768921 -4.20458e-19)
(1.07511 0.084752 -4.13425e-19)
(-0.0355243 0.0352197 2.31068e-20)
(-0.0438648 0.0545327 -3.10007e-19)
(-0.00591758 0.0552563 8.07606e-20)
(0.0748244 0.0484846 -2.70591e-19)
(0.197459 0.043917 3.42627e-19)
(0.357382 0.0455469 -2.30584e-19)
(0.541801 0.0540483 9.36158e-21)
(0.730937 0.0669862 -1.90795e-20)
(0.904893 0.0806343 -2.35375e-19)
(1.04978 0.0916764 5.76258e-19)
(1.15977 0.0982606 2.42884e-19)
(-0.0370524 0.0335343 -1.6687e-19)
(-0.0396575 0.0492382 2.13996e-19)
(0.0117425 0.0485361 -1.86167e-19)
(0.113654 0.0424657 -2.03188e-19)
(0.26385 0.0416495 -3.75324e-19)
(0.451397 0.0492977 1.47457e-19)
(0.654455 0.063931 -1.01752e-19)
(0.847337 0.0810186 -2.94502e-19)
(1.01056 0.0960038 2.54849e-19)
(1.13519 0.106011 -2.05411e-19)
(1.22156 0.110197 2.95258e-19)
(1.27576 0.109019 3.38687e-19)
(-0.0382273 0.0316269 8.68837e-19)
(-0.0332417 0.0434348 -2.1752e-19)
(0.0346323 0.0417105 1.90044e-19)
(0.161654 0.0375273 2.31001e-19)
(0.341881 0.0422491 3.53957e-19)
(0.554348 0.0569962 -1.86842e-19)
(0.767634 0.0772319 1.09708e-19)
(0.953952 0.0967661 -1.47919e-19)
(1.0986 0.111228 -2.71802e-19)
(1.19971 0.118922 1.40252e-19)
(1.26347 0.120227 -2.50536e-19)
(1.29928 0.116498 -1.58341e-19)
(-0.0389136 0.0294836 -6.10251e-19)
(-0.0241217 0.0372185 2.60349e-19)
(0.0637308 0.0351515 -2.71881e-20)
(0.219758 0.0344913 -1.3215e-19)
(0.430465 0.0465086 -3.93973e-19)
(0.661687 0.068531 2.7936e-19)
(0.875046 0.0928729 -2.52939e-19)
(1.04599 0.112859 1.11578e-19)
(1.16773 0.125308 1.37267e-19)
(1.2455 0.130032 -5.83247e-19)
(1.28978 0.128497 1.1205e-19)
(1.31141 0.122604 2.00339e-20)
(1.31924 0.114123 2.44915e-19)
(-0.0389582 0.0270889 -4.45369e-20)
(-0.0117562 0.0306878 -3.91733e-19)
(0.100016 0.0293102 2.14215e-19)
(0.288307 0.0342245 1.41152e-19)
(0.527025 0.0547845 -1.14358e-19)
(0.768072 0.0831651 -3.538e-19)
(0.971745 0.109584 2.37726e-19)
(1.12148 0.128264 -6.14113e-20)
(1.21926 0.137791 4.45778e-20)
(1.27608 0.139411 3.65463e-19)
(1.30471 0.135353 -1.95512e-19)
(1.31603 0.127749 -1.8057e-19)
(1.31774 0.118239 -1.65574e-19)
(-0.0381799 0.0244223 -1.88584e-20)
(0.004438 0.0239666 2.29293e-19)
(0.14435 0.024781 -4.01053e-19)
(0.366678 0.0375088 7.94234e-20)
(0.627641 0.0668699 2.73643e-19)
(0.868436 0.0998192 5.1586e-20)
(1.05477 0.126286 8.18487e-20)
(1.18061 0.142404 1.4804e-19)
(1.25579 0.148627 -1.66788e-19)
(1.29501 0.147333 -1.23828e-19)
(1.31175 0.141176 2.30316e-19)
(1.31588 0.132274 4.26916e-19)
(1.31366 0.122049 4.74097e-20)
(1.30854 0.111269 -1.67964e-19)
(-0.0363757 0.0214694 4.57726e-20)
(0.0250815 0.0172321 4.30375e-19)
(0.197327 0.0223093 -1.30447e-19)
(0.453078 0.0447944 3.56186e-19)
(0.727811 0.0820456 -2.90617e-19)
(0.959015 0.1174 3.43086e-19)
(1.12321 0.14225 -2.78946e-19)
(1.22504 0.15508 1.80805e-19)
(1.28029 0.15799 -1.17721e-19)
(1.30548 0.154131 1.23497e-20)
(1.31351 0.146295 -1.38543e-19)
(1.31281 0.136432 -2.41625e-19)
(1.30814 0.125707 -1.19364e-19)
(1.30186 0.114714 8.30291e-20)
(1.29498 0.103836 2.81471e-20)
(-0.0333238 0.0182273 -4.14339e-19)
(0.0508189 0.0107533 -3.88206e-19)
(0.259056 0.0227206 2.99566e-19)
(0.544634 0.0560274 -1.8009e-20)
(0.823385 0.0993457 4.14393e-19)
(1.03771 0.135047 -2.4951e-19)
(1.17763 0.157105 1.08466e-19)
(1.25706 0.166337 -1.40315e-19)
(1.29557 0.166149 2.63417e-19)
(1.30999 0.160123 -1.04936e-19)
(1.31187 0.150974 1.02928e-19)
(1.308 0.140396 -6.96591e-21)
(1.30182 0.129306 8.09398e-20)
(1.29485 0.118148 -1.06874e-20)
(1.28766 0.107162 1.24143e-19)
(1.28045 0.0963388 2.55926e-20)
(-0.0287805 0.014709 5.95155e-19)
(0.082279 0.00494359 -3.76231e-19)
(0.328941 0.026744 9.5238e-20)
(0.637858 0.0706855 -3.72779e-19)
(0.911236 0.117846 -2.60878e-19)
(1.10388 0.1522 2.83725e-20)
(1.21948 0.170736 5.08603e-20)
(1.27903 0.17635 -1.42279e-19)
(1.30402 0.173388 2.58431e-20)
(1.31043 0.165574 2.01545e-19)
(1.30808 0.155402 -1.48548e-19)
(1.30217 0.144276 -8.91121e-20)
(1.29506 0.132897 -4.9098e-20)
(1.28768 0.121582 -4.42852e-20)
(1.2803 0.110501 -5.68773e-20)
(1.273 0.0996492 1.07091e-19)
(1.26571 0.0894132 -5.23475e-20)
(-0.0224732 0.0109495 -1.4148e-19)
(0.119992 0.000404357 3.49338e-19)
(0.405579 0.0347916 2.0687e-19)
(0.729293 0.0879951 -2.33122e-19)
(0.989478 0.136823 2.87044e-19)
(1.15796 0.168557 -1.69288e-21)
(1.25057 0.183185 2.56621e-19)
(1.29315 0.185344 1.6713e-19)
(1.30754 0.179966 1.48102e-19)
(1.30814 0.170692 -1.42582e-19)
(1.30294 0.159708 9.96767e-20)
(1.29573 0.148139 1.05302e-19)
(1.28805 0.136502 1.76592e-19)
(1.2804 0.125028 -9.34074e-20)
(1.27291 0.113824 -1.38901e-22)
(1.26556 0.10294 -8.996e-20)
(1.2583 0.0925481 3.50944e-21)
(1.25125 0.0821358 -4.00206e-20)
(-0.0140941 0.00701849 -1.28978e-19)
(0.164265 -0.00208299 -1.41149e-19)
(0.486856 0.0468323 -7.20233e-21)
(0.816054 0.107174 2.20993e-19)
(1.05731 0.155784 -2.14653e-19)
(1.20097 0.184 -2.33338e-19)
(1.27274 0.194585 8.8886e-20)
(1.30128 0.193551 -1.04709e-19)
(1.30757 0.186101 -6.65016e-20)
(1.30405 0.175628 2.60015e-20)
(1.29695 0.163975 -2.25705e-19)
(1.28891 0.152017 2.08036e-19)
(1.28087 0.14013 -2.01601e-20)
(1.27305 0.128477 -4.63846e-20)
(1.26548 0.11714 4.1832e-20)
(1.25811 0.106158 -6.38118e-20)
(1.2509 0.095653 -5.69733e-20)
(1.24389 0.0852711 -3.34795e-21)
(1.23674 0.0764867 -4.22416e-20)
(1.2311 0.065276 7.97165e-20)
(-0.00330015 0.00303796 1.48533e-19)
(0.215044 -0.00165309 2.56306e-19)
(0.570258 0.0624511 -3.42961e-19)
(0.896096 0.127573 -1.26631e-19)
(1.11474 0.174424 -5.71399e-20)
(1.23422 0.198523 3.26841e-19)
(1.28771 0.205105 -8.69336e-20)
(1.30491 0.201183 -5.40864e-20)
(1.30514 0.191963 -7.50053e-20)
(1.29876 0.180484 9.00788e-20)
(1.29041 0.168252 3.33954e-20)
(1.28184 0.155925 -3.90426e-20)
(1.27355 0.143778 -1.04857e-19)
(1.26563 0.131925 1.07445e-20)
(1.25801 0.120427 -4.54742e-20)
(1.25065 0.109329 8.1653e-20)
(1.24349 0.0986688 2.01206e-20)
(1.23656 0.0883027 2.1176e-20)
(1.22963 0.0792054 2.88304e-20)
(1.22389 0.0681726 -8.39429e-20)
(0.0102726 -0.000795884 -2.79457e-19)
(0.271819 0.00246647 -1.60509e-20)
(0.653236 0.08104 -5.24142e-20)
(0.968204 0.148714 1.49663e-19)
(1.16228 0.192574 -5.15562e-20)
(1.25912 0.212192 -1.43641e-19)
(1.29697 0.214923 -2.01321e-19)
(1.30521 0.208418 1.41047e-19)
(1.301 0.197677 -1.65478e-19)
(1.29265 0.185327 8.21908e-20)
(1.28348 0.17256 4.83912e-20)
(1.27456 0.159866 -2.54794e-20)
(1.26612 0.147439 6.01316e-20)
(1.25812 0.135363 6.76878e-20)
(1.25049 0.123682 -1.4432e-19)
(1.24315 0.112429 1.08654e-19)
(1.23606 0.101621 9.61305e-21)
(1.22923 0.0912055 1.88241e-20)
(1.22249 0.0817951 9.11682e-20)
(1.2167 0.0709313 2.27811e-20)
(0.0269645 -0.00418992 8.30945e-20)
(0.333615 0.0107721 -3.32686e-19)
(0.733523 0.10198 3.10531e-19)
(1.03183 0.170265 1.40652e-19)
(1.20076 0.210157 -1.04441e-19)
(1.27697 0.225107 -1.71689e-19)
(1.30176 0.224204 5.87158e-21)
(1.30305 0.215402 -3.36702e-20)
(1.29565 0.203329 2.84699e-19)
(1.28596 0.190192 -1.29844e-19)
(1.27625 0.176909 -1.49429e-20)
(1.2671 0.163834 3.43455e-20)
(1.25856 0.151104 -2.13833e-20)
(1.25053 0.13878 -4.39968e-20)
(1.2429 0.126893 1.24237e-19)
(1.23561 0.115464 -1.02499e-19)
(1.22861 0.104489 1.25983e-20)
(1.22188 0.0939895 -5.82519e-20)
(1.21532 0.0842777 -6.17481e-20)
(1.20952 0.0735337 -2.00158e-20)
(0.0470361 -0.00674991 -5.98763e-20)
(0.39909 0.0233868 1.39132e-19)
(0.809318 0.124733 -1.25647e-19)
(1.08692 0.191995 -1.29442e-19)
(1.23111 0.227154 2.14004e-19)
(1.289 0.237383 2.26433e-19)
(1.30306 0.233095 1.09262e-19)
(1.29908 0.22224 -1.85428e-21)
(1.28941 0.208974 -2.79839e-19)
(1.27882 0.195096 2.36338e-20)
(1.26876 0.181292 8.92735e-21)
(1.25947 0.167816 6.03988e-20)
(1.25087 0.15476 9.92217e-20)
(1.24284 0.142165 -5.23921e-21)
(1.23524 0.130051 -2.27745e-20)
(1.22802 0.118423 9.20443e-20)
(1.22112 0.107276 -6.03938e-20)
(1.21451 0.0966526 7.45043e-20)
(1.20812 0.0866462 -6.69882e-21)
(1.20234 0.0760034 7.67971e-20)
(0.0706174 -0.00800269 1.04335e-19)
(0.466694 0.0400972 5.44892e-20)
(0.879337 0.14886 -1.23369e-19)
(1.1337 0.213734 -1.51885e-19)
(1.25432 0.243582 -1.07245e-20)
(1.29622 0.249134 -2.48628e-20)
(1.30165 0.241714 1.2216e-19)
(1.29374 0.229007 8.5043e-20)
(1.28249 0.21464 9.1459e-20)
(1.27131 0.200038 -3.32314e-20)
(1.26103 0.185699 4.38698e-20)
(1.25166 0.171798 -4.03872e-20)
(1.24305 0.158393 -8.22997e-20)
(1.23504 0.145506 1.00182e-20)
(1.2275 0.133145 2.15009e-20)
(1.22037 0.121303 2.56991e-20)
(1.21358 0.109973 3.43635e-20)
(1.20709 0.0991951 -2.07406e-20)
(1.20087 0.088913 4.02175e-20)
(1.19515 0.0783429 -9.27486e-20)
(0.0976672 -0.00744571 1.37746e-19)
(0.534829 0.0604787 -1.23527e-20)
(0.942778 0.174007 1.73295e-19)
(1.17263 0.235352 1.0514e-19)
(1.2713 0.259476 4.69422e-20)
(1.29953 0.260464 -1.14776e-19)
(1.29813 0.25015 -1.08732e-19)
(1.28733 0.23575 -3.01987e-20)
(1.27501 0.220336 -8.14347e-21)
(1.26346 0.205008 -7.92757e-21)
(1.25306 0.190113 -1.0578e-19)
(1.24366 0.175763 2.32374e-20)
(1.23507 0.161986 4.20675e-20)
(1.22712 0.14879 1.26105e-21)
(1.21967 0.136166 5.0954e-21)
(1.21264 0.124097 -1.30913e-20)
(1.20598 0.112574 -3.18767e-20)
(1.19963 0.101618 -2.65418e-20)
(1.19358 0.0910767 -5.55859e-20)
(1.18794 0.0805606 8.54782e-21)
(0.127961 -0.00461674 -8.4603e-20)
(0.601977 0.0840282 5.22454e-20)
(0.999239 0.19989 -2.14505e-20)
(1.20425 0.256737 5.00792e-21)
(1.28291 0.274877 -1.93033e-19)
(1.29963 0.271461 4.76933e-20)
(1.29293 0.258467 3.06583e-20)
(1.28007 0.242488 -2.11462e-20)
(1.26705 0.226055 7.56303e-20)
(1.25528 0.209989 -1.21116e-21)
(1.24483 0.194514 3.31484e-20)
(1.23547 0.179692 3.88318e-20)
(1.22694 0.165525 -2.66443e-20)
(1.21908 0.152003 -3.15222e-20)
(1.21174 0.139103 -1.71424e-20)
(1.20484 0.126796 -1.84446e-20)
(1.19832 0.115072 1.62365e-20)
(1.19213 0.103921 1.87924e-20)
(1.18624 0.0931427 3.03426e-20)
(1.1807 0.0826611 3.51022e-20)
(0.161106 0.000839055 -3.94555e-20)
(0.666785 0.110248 -7.69477e-21)
(1.04862 0.226282 -6.98678e-20)
(1.22914 0.2778 6.44919e-20)
(1.2899 0.289828 1.38591e-19)
(1.29709 0.282194 7.5505e-20)
(1.28636 0.266701 -3.39518e-20)
(1.27208 0.249225 -1.97731e-20)
(1.25863 0.231781 -4.48028e-20)
(1.24678 0.214957 4.30956e-20)
(1.23636 0.198879 -1.68619e-21)
(1.22706 0.183564 -2.1402e-20)
(1.21864 0.168991 -2.52333e-20)
(1.2109 0.155129 -2.42375e-20)
(1.20371 0.141943 5.04537e-20)
(1.19696 0.129393 -1.71293e-20)
(1.1906 0.117461 -1.862e-20)
(1.18457 0.106103 -3.21257e-21)
(1.17886 0.0951103 -3.31938e-21)
(1.17343 0.0846472 -1.9519e-20)
(0.196576 0.00912681 -3.9213e-21)
(0.728105 0.138673 -5.18087e-20)
(1.09101 0.252991 2.38807e-20)
(1.24793 0.298465 -8.47025e-20)
(1.29292 0.304359 -5.89678e-20)
(1.29236 0.29271 8.75655e-21)
(1.27864 0.274868 -8.82995e-22)
(1.26343 0.255947 3.87423e-21)
(1.24978 0.237487 1.21608e-20)
(1.23794 0.219885 2.15228e-20)
(1.22761 0.203182 -2.92706e-20)
(1.21845 0.187357 1.24635e-20)
(1.21017 0.172365 2.18116e-20)
(1.20259 0.158155 -4.76141e-21)
(1.19557 0.144675 -2.1267e-20)
(1.189 0.131878 1.19825e-20)
(1.18281 0.119732 1.37435e-20)
(1.17696 0.108162 1.39846e-20)
(1.17142 0.0969803 -7.14755e-21)
(1.16611 0.0865206 2.5945e-21)
(0.233747 0.0202967 4.37894e-20)
(0.785017 0.168874 -6.03898e-20)
(1.12665 0.279848 -8.19553e-21)
(1.2612 0.318672 3.46402e-20)
(1.29253 0.318494 5.56834e-20)
(1.28579 0.303034 -1.70086e-20)
(1.26994 0.282965 -4.84608e-20)
(1.25419 0.26263 4.79636e-20)
(1.24049 0.243143 -1.29366e-20)
(1.22877 0.224741 -1.48905e-20)
(1.2186 0.207395 1.3557e-20)
(1.20961 0.191048 -6.73956e-21)
(1.20153 0.175627 -1.9864e-21)
(1.19415 0.161062 5.2976e-21)
(1.18732 0.147286 7.6282e-21)
(1.18095 0.134239 9.81087e-21)
(1.17495 0.121878 -1.75715e-20)
(1.16929 0.110098 -4.38702e-21)
(1.16394 0.0987495 -1.09253e-21)
(1.15876 0.0882799 5.34306e-21)
(0.271908 0.034271 -2.40333e-20)
(0.836822 0.200444 4.19747e-20)
(1.15584 0.306691 -5.18781e-21)
(1.26952 0.338373 -1.11407e-20)
(1.28918 0.332244 -3.62379e-20)
(1.27764 0.313174 1.69283e-20)
(1.26036 0.290971 1.10932e-20)
(1.24437 0.269239 -1.22445e-20)
(1.23078 0.248711 -1.99915e-21)
(1.21925 0.229493 5.81869e-21)
(1.20931 0.211491 -6.30444e-21)
(1.20055 0.194613 3.17529e-21)
(1.19271 0.178756 -6.91015e-21)
(1.18556 0.163833 3.96703e-21)
(1.17896 0.149761 8.22276e-22)
(1.17281 0.136467 -3.64815e-21)
(1.16703 0.123891 2.10277e-21)
(1.16158 0.111907 -3.29389e-21)
(1.15641 0.100413 1.07944e-21)
(1.15137 0.0899228 3.8715e-21)
(0.310257 0.0508789 -1.72628e-20)
(0.883037 0.232996 3.6772e-20)
(1.17889 0.333356 -3.83229e-21)
(1.2734 0.357524 -1.43148e-20)
(1.28327 0.345609 -3.33264e-20)
(1.26812 0.323119 1.66624e-20)
(1.24997 0.298856 1.07913e-20)
(1.23398 0.275734 -9.6485e-21)
(1.22063 0.254154 -1.11821e-22)
(1.20938 0.234106 4.53512e-21)
(1.19973 0.215439 -3.99899e-21)
(1.19127 0.198025 -1.09493e-21)
(1.18371 0.181733 -2.40449e-21)
(1.17683 0.166452 1.44034e-21)
(1.17049 0.152085 9.3635e-22)
(1.16459 0.138548 -3.69856e-21)
(1.15905 0.125762 4.14318e-21)
(1.15382 0.113585 -3.99734e-21)
(1.14885 0.101963 -9.79233e-22)
(1.14395 0.0914429 2.53363e-21)
(0.348009 0.0698588 4.99795e-20)
(0.923298 0.266124 -4.95968e-20)
(1.19607 0.359659 -3.54045e-20)
(1.27324 0.376078 4.57319e-20)
(1.27508 0.35858 5.1753e-20)
(1.25734 0.332849 -2.09818e-20)
(1.2388 0.306585 -3.45989e-20)
(1.22302 0.282077 3.7738e-20)
(1.21003 0.259434 -1.05005e-20)
(1.19916 0.238549 -1.22372e-20)
(1.18987 0.219213 9.5698e-21)
(1.18176 0.201263 -1.84228e-21)
(1.17452 0.184536 -4.47607e-21)
(1.16796 0.168902 1.42895e-21)
(1.16192 0.154247 6.92457e-21)
(1.15629 0.140472 8.14135e-21)
(1.151 0.127482 -1.02405e-20)
(1.14602 0.115123 -2.71e-21)
(1.14128 0.103395 -1.77671e-21)
(1.13649 0.0928383 3.82416e-21)
(0.384609 0.0909775 2.2274e-20)
(0.957679 0.299565 -7.8819e-20)
(1.20785 0.385489 2.18692e-20)
(1.26953 0.393999 -5.6678e-20)
(1.2649 0.371127 -6.56203e-20)
(1.24542 0.342311 1.05878e-20)
(1.22688 0.314095 4.17921e-21)
(1.21151 0.288207 -4.2166e-21)
(1.19899 0.264498 1.39652e-20)
(1.18857 0.242775 -5.47663e-22)
(1.17972 0.222774 -9.06489e-21)
(1.17202 0.204293 1.83702e-21)
(1.16516 0.187138 1.77235e-20)
(1.15896 0.171158 -1.52153e-21)
(1.15325 0.156225 -6.08108e-21)
(1.14792 0.142225 -3.5472e-21)
(1.14291 0.129037 1.54925e-20)
(1.13819 0.116502 6.69036e-21)
(1.13369 0.104708 -3.94998e-21)
(1.129 0.0941164 -4.68518e-21)
(0.419422 0.113986 -4.94353e-20)
(0.986149 0.333029 -9.42802e-21)
(1.21454 0.410684 -6.82004e-20)
(1.26257 0.411229 7.5856e-20)
(1.2529 0.383208 9.36369e-20)
(1.23244 0.351457 3.61373e-20)
(1.21423 0.321332 -6.54749e-21)
(1.19944 0.294074 7.40277e-21)
(1.1875 0.269304 -3.77603e-20)
(1.17763 0.246749 2.70344e-20)
(1.16929 0.226091 -8.16812e-21)
(1.16205 0.207089 -6.25912e-21)
(1.15564 0.189518 -1.70866e-20)
(1.14983 0.173202 -5.19863e-21)
(1.14449 0.158005 8.08883e-21)
(1.13949 0.143795 -5.31149e-21)
(1.13478 0.13042 -6.99022e-21)
(1.13036 0.117714 2.02158e-21)
(1.12607 0.105894 -1.25083e-21)
(1.12152 0.0952723 -1.07557e-20)
(0.451856 0.138614 -7.30912e-20)
(1.00879 0.366245 1.37956e-20)
(1.21649 0.435095 3.29805e-20)
(1.2527 0.427706 -3.5848e-20)
(1.23928 0.394773 -1.2828e-19)
(1.21846 0.360222 1.05907e-20)
(1.20086 0.328233 4.57313e-20)
(1.1868 0.299621 -1.68727e-20)
(1.17557 0.273802 3.61854e-20)
(1.16634 0.250429 -9.65298e-21)
(1.15859 0.229128 2.39848e-20)
(1.15188 0.209619 3.26869e-21)
(1.14596 0.19165 4.21277e-22)
(1.14059 0.175016 -1.42026e-20)
(1.13564 0.159568 -6.6887e-21)
(1.131 0.145162 -3.07474e-21)
(1.12663 0.131612 3.00323e-21)
(1.12252 0.118772 4.91708e-21)
(1.11843 0.106939 8.80664e-21)
(1.11407 0.0962804 1.52343e-20)
(0.481404 0.164577 9.32169e-20)
(1.02572 0.398953 3.40753e-20)
(1.21403 0.458576 1.11902e-19)
(1.24017 0.443361 5.3976e-20)
(1.22415 0.405759 4.21594e-20)
(1.20352 0.368539 -5.43011e-20)
(1.18679 0.334731 -4.81108e-20)
(1.17362 0.304791 -1.61169e-20)
(1.16321 0.277945 -8.96643e-21)
(1.15472 0.253775 -1.93889e-20)
(1.14763 0.231855 -2.95907e-20)
(1.14151 0.211857 -5.70841e-22)
(1.13612 0.193508 1.37492e-20)
(1.13123 0.17658 2.66542e-20)
(1.12672 0.160901 -2.65152e-20)
(1.12247 0.146313 5.77795e-21)
(1.11846 0.132604 -7.55047e-21)
(1.11467 0.119659 -3.07257e-21)
(1.1108 0.107834 -1.72279e-20)
(1.10665 0.0971366 -3.57456e-21)
(0.507639 0.191568 2.04999e-19)
(1.03712 0.430902 -1.89918e-20)
(1.20746 0.48098 -8.77476e-20)
(1.22522 0.458118 -1.18943e-19)
(1.20762 0.416094 -2.53966e-20)
(1.18766 0.376333 -1.52269e-23)
(1.17204 0.340758 6.4761e-20)
(1.15992 0.309521 5.14526e-20)
(1.15045 0.281683 3.4032e-20)
(1.14278 0.256745 -1.38368e-20)
(1.13642 0.234234 1.06861e-20)
(1.13095 0.213779 -9.71545e-21)
(1.12614 0.195071 -1.78638e-20)
(1.12178 0.17787 6.77148e-21)
(1.11773 0.161982 -2.21019e-21)
(1.1139 0.147231 6.14487e-21)
(1.11028 0.133385 8.82893e-21)
(1.10682 0.120366 -1.96436e-21)
(1.1032 0.108565 1.11637e-20)
(1.09927 0.0978295 -8.2662e-21)
(0.53022 0.219258 -1.29111e-19)
(1.04318 0.461845 1.51579e-19)
(1.1971 0.502164 -6.60853e-20)
(1.20805 0.471892 -3.09397e-20)
(1.18978 0.425694 9.62186e-20)
(1.17093 0.383524 9.18611e-20)
(1.15665 0.346246 3.0499e-20)
(1.14572 0.313755 -2.36469e-20)
(1.1373 0.284967 -4.92562e-20)
(1.13053 0.259308 -7.84071e-22)
(1.12496 0.236234 5.80084e-21)
(1.12021 0.215351 1.2673e-20)
(1.11604 0.196315 1.15974e-20)
(1.11224 0.178867 -3.98683e-21)
(1.10869 0.162795 7.93767e-21)
(1.10532 0.147902 2.70315e-21)
(1.10211 0.133945 -4.31479e-21)
(1.099 0.120877 6.72826e-21)
(1.09565 0.109119 6.1997e-21)
(1.09197 0.0983521 3.56632e-21)
(0.548892 0.247301 2.08499e-20)
(1.04412 0.491535 -2.70088e-19)
(1.18322 0.521987 1.6534e-19)
(1.18883 0.484598 1.00174e-19)
(1.17071 0.434465 -1.00099e-20)
(1.1534 0.390026 -7.91567e-20)
(1.14066 0.351123 -7.02405e-21)
(1.13104 0.317442 -1.65569e-20)
(1.12375 0.287752 5.05682e-20)
(1.11798 0.261413 -3.83409e-21)
(1.11329 0.237821 -8.69777e-21)
(1.10931 0.216547 2.52545e-21)
(1.10582 0.197215 -2.98064e-21)
(1.10263 0.17955 -1.95559e-21)
(1.09962 0.163322 8.93036e-21)
(1.09673 0.148313 -1.30602e-20)
(1.09395 0.13427 1.37727e-21)
(1.09121 0.121182 -3.28786e-21)
(1.08815 0.109482 -2.88745e-21)
(1.08475 0.098695 4.14013e-22)
(0.563485 0.275337 -2.59736e-19)
(1.04017 0.519727 2.60006e-20)
(1.16607 0.540305 -5.61247e-20)
(1.16775 0.496146 7.13412e-20)
(1.15057 0.442321 -1.36129e-20)
(1.13511 0.395748 -5.45791e-20)
(1.12405 0.35533 -5.3695e-20)
(1.11588 0.320522 1.03778e-20)
(1.10985 0.289992 -1.10777e-20)
(1.10516 0.263027 9.79082e-21)
(1.10142 0.238962 1.21489e-20)
(1.09827 0.217337 -8.27217e-21)
(1.09551 0.197749 -1.19231e-21)
(1.09297 0.1799 5.52665e-21)
(1.09054 0.163546 -7.58688e-21)
(1.08815 0.148449 2.03647e-21)
(1.08584 0.13435 2.64914e-21)
(1.08348 0.121268 -7.25835e-22)
(1.08072 0.109642 1.80843e-22)
(1.07763 0.09885 -9.8035e-22)
(0.573909 0.303003 1.17922e-19)
(1.03158 0.546181 2.44573e-19)
(1.14587 0.556947 -2.36699e-19)
(1.14502 0.506437 1.321e-20)
(1.12943 0.449185 -5.40103e-20)
(1.11605 0.40061 1.06108e-19)
(1.10688 0.35879 -2.96748e-20)
(1.1003 0.32294 -3.08312e-21)
(1.09562 0.291639 -8.34342e-21)
(1.0921 0.264108 9.16399e-21)
(1.08938 0.239626 -2.38629e-21)
(1.08712 0.217698 -2.61301e-21)
(1.08513 0.197894 9.5642e-22)
(1.08328 0.179898 -2.51849e-21)
(1.08145 0.16345 2.5735e-21)
(1.07961 0.148296 -4.76541e-21)
(1.07777 0.134173 1.35068e-22)
(1.07582 0.121122 -2.48637e-21)
(1.07338 0.109587 -2.67823e-21)
(1.07063 0.0988089 2.89719e-21)
(0.580152 0.329938 -9.1804e-20)
(1.01864 0.570688 -8.66122e-20)
(1.12284 0.571725 3.85559e-20)
(1.12085 0.515367 7.68603e-21)
(1.10734 0.454971 -6.41882e-21)
(1.0963 0.40454 -7.01005e-20)
(1.08919 0.361434 2.41863e-20)
(1.08432 0.324641 -1.81016e-20)
(1.08111 0.292651 2.85295e-21)
(1.07883 0.264623 -4.92865e-21)
(1.07719 0.239782 2.62981e-21)
(1.07586 0.217602 -4.03995e-21)
(1.07471 0.197628 3.89443e-21)
(1.07357 0.179526 2.07088e-21)
(1.07238 0.163019 -8.22114e-22)
(1.07111 0.147842 -2.50281e-21)
(1.06977 0.133727 3.14843e-21)
(1.06824 0.120733 2.99707e-21)
(1.06615 0.109303 5.61522e-21)
(1.06378 0.0985657 3.62294e-21)
(0.582277 0.355783 -2.13633e-19)
(1.0017 0.59308 3.05548e-19)
(1.09726 0.584518 9.84913e-20)
(1.09527 0.522753 -6.80329e-20)
(1.08436 0.459598 5.01297e-20)
(1.07592 0.407463 1.39813e-20)
(1.07103 0.363199 1.38507e-20)
(1.068 0.325574 -2.08963e-21)
(1.06634 0.292984 1.72396e-21)
(1.06539 0.264536 -1.51363e-21)
(1.06488 0.239402 -3.26378e-21)
(1.06455 0.217027 -5.15704e-21)
(1.06425 0.196931 -2.19748e-20)
(1.06388 0.178766 8.77634e-21)
(1.06336 0.162238 4.11106e-21)
(1.06268 0.147073 6.72792e-21)
(1.06186 0.133001 -8.52536e-21)
(1.06077 0.120089 4.01253e-22)
(1.05905 0.10878 7.6804e-21)
(1.05708 0.0981166 2.24051e-20)
(0.580418 0.380171 4.79929e-19)
(0.981049 0.613142 -2.41608e-19)
(1.06941 0.595243 2.90638e-20)
(1.06839 0.528455 -8.27524e-20)
(1.0606 0.462941 -2.48588e-20)
(1.05497 0.409305 -1.35722e-21)
(1.05247 0.364025 -4.18014e-21)
(1.05137 0.32569 -1.55778e-21)
(1.05136 0.292601 -1.40524e-23)
(1.0518 0.263815 -3.11301e-20)
(1.0525 0.23846 1.77603e-20)
(1.05319 0.215951 3.06429e-21)
(1.0538 0.195786 1.00516e-20)
(1.05421 0.177602 -1.45285e-20)
(1.0544 0.161092 1.82131e-20)
(1.05434 0.145977 6.28421e-21)
(1.05406 0.131984 -8.94752e-21)
(1.05342 0.119177 -1.66811e-21)
(1.05209 0.108002 -2.77244e-20)
(1.05056 0.0974579 -1.26287e-20)
(0.574777 0.402777 -2.31575e-19)
(0.956744 0.630512 -2.42249e-19)
(1.03965 0.603863 7.4022e-20)
(1.04045 0.532409 4.27894e-20)
(1.03616 0.464908 3.22503e-20)
(1.03354 0.409998 3.87564e-21)
(1.03355 0.363858 -1.6159e-20)
(1.03451 0.324945 2.77331e-20)
(1.03622 0.291465 -4.67534e-20)
(1.03812 0.262433 1.26236e-20)
(1.04006 0.236931 -1.70865e-20)
(1.04183 0.214353 6.14644e-21)
(1.04338 0.194175 -3.33654e-20)
(1.04461 0.17602 1.31954e-20)
(1.04552 0.159571 -2.68545e-20)
(1.0461 0.144545 1.18971e-20)
(1.04638 0.130666 5.4338e-21)
(1.0462 0.11798 1.63481e-20)
(1.0453 0.106946 2.47533e-20)
(1.04423 0.0965786 -3.27153e-21)
(0.565594 0.423431 7.80641e-20)
(0.928902 0.644822 2.41271e-19)
(1.0083 0.610231 -5.90781e-20)
(1.01158 0.534587 4.97852e-20)
(1.01113 0.465418 -7.91051e-21)
(1.01171 0.409475 -2.53302e-20)
(1.01436 0.362647 4.14129e-20)
(1.01746 0.323298 -3.17441e-20)
(1.02097 0.289545 3.49915e-21)
(1.02437 0.260362 8.80059e-21)
(1.02761 0.234795 -9.3261e-24)
(1.0305 0.212217 6.07997e-20)
(1.03301 0.192084 3.03318e-20)
(1.03509 0.174008 -1.49925e-20)
(1.03675 0.157663 1.69997e-20)
(1.03799 0.142769 -1.18183e-20)
(1.03883 0.129043 -5.57062e-22)
(1.03913 0.116492 -6.21641e-20)
(1.03867 0.105584 -2.77999e-20)
(1.0381 0.0954527 -2.19619e-20)
(0.553084 0.441994 1.68026e-20)
(0.897985 0.655951 7.07382e-20)
(0.975512 0.614098 -4.99866e-20)
(0.981968 0.534922 -6.4177e-21)
(0.985644 0.464402 -2.82562e-20)
(0.989571 0.407676 -1.49959e-20)
(0.994958 0.360349 -2.72029e-20)
(1.00028 0.320714 -1.5867e-20)
(1.00566 0.286811 -1.55741e-20)
(1.01062 0.257579 3.29874e-20)
(1.01519 0.232033 -3.04853e-20)
(1.01922 0.209526 -9.43664e-20)
(1.02272 0.1895 -2.20866e-20)
(1.02568 0.171554 -1.0449e-20)
(1.02811 0.155359 3.20198e-20)
(1.03003 0.140642 -5.32789e-21)
(1.03144 0.127113 6.41557e-21)
(1.03223 0.114714 -1.20358e-20)
(1.03226 0.103914 4.19317e-20)
(1.03222 0.0940702 -2.6723e-20)
(0.537249 0.458097 3.74066e-20)
(0.864739 0.664034 -1.36893e-19)
(0.941567 0.615316 2.08624e-20)
(0.951761 0.533333 -2.30411e-20)
(0.959807 0.461802 1.27968e-20)
(0.967208 0.40455 8.58104e-20)
(0.975433 0.356925 -7.26258e-20)
(0.983049 0.317162 -1.80557e-20)
(0.990338 0.283239 4.86815e-21)
(0.996901 0.254066 -1.18544e-19)
(1.00284 0.228629 2.07491e-20)
(1.00803 0.206268 7.49643e-20)
(1.01256 0.186412 7.30776e-20)
(1.0164 0.168649 1.79755e-20)
(1.01962 0.15265 -2.6762e-20)
(1.02222 0.138153 -1.0294e-20)
(1.02421 0.124866 3.11444e-20)
(1.02554 0.11265 3.15906e-21)
(1.02618 0.101964 5.18903e-21)
(1.02676 0.0925244 4.53253e-20)
(0.518186 0.471169 -1.75926e-19)
(0.829545 0.668896 5.304e-20)
(0.90667 0.613872 1.14564e-20)
(0.921128 0.529747 2.29724e-21)
(0.933745 0.457568 6.57943e-20)
(0.944725 0.400056 -3.95358e-20)
(0.955864 0.352342 5.19424e-20)
(0.965827 0.312619 -3.45968e-20)
(0.975073 0.278811 -5.66839e-20)
(0.983267 0.249807 1.82175e-19)
(0.990592 0.224572 4.49897e-21)
(0.996978 0.202435 -1.05915e-20)
(1.00254 0.182812 -3.27387e-20)
(1.00729 0.165288 -2.7622e-21)
(1.01131 0.14953 -2.22056e-21)
(1.01458 0.135291 2.04315e-20)
(1.01715 0.122279 -1.71973e-20)
(1.0191 0.110262 -1.59836e-20)
(1.02059 0.0996928 3.41115e-21)