/*--------------------------------*- C++ -*----------------------------------*\
  =========                 |
  \\      /  F ield         | OpenFOAM: The Open Source CFD Toolbox
   \\    /   O peration     | Website:  https://openfoam.org
    \\  /    A nd           | Version:  7
     \\/     M anipulation  |
\*---------------------------------------------------------------------------*/
FoamFile
{
    version     2.0;
    format      ascii;
    class       volScalarField;
    location    "10";
    object      p;
}
// * * * * * * * * * * * * * * * * * * * * * * * * * * * * * * * * * * * * * //

dimensions      [0 2 -2 0 0 0 0];

internalField   nonuniform List<scalar> 
12100
(
-0.325211
-0.330817
-0.332717
-0.336229
-0.340168
-0.344916
-0.350375
-0.356569
-0.363464
-0.370963
-0.378859
-0.386795
-0.394228
-0.400409
-0.404359
-0.404941
-0.400828
-0.390747
-0.373728
-0.348215
-0.325623
-0.331121
-0.333007
-0.3365
-0.340428
-0.345171
-0.350631
-0.35684
-0.363768
-0.371329
-0.379326
-0.387413
-0.395058
-0.401526
-0.40584
-0.406888
-0.40334
-0.393705
-0.377581
-0.351905
-0.326429
-0.331714
-0.33357
-0.337019
-0.340922
-0.345645
-0.351101
-0.357326
-0.364303
-0.371962
-0.380122
-0.388457
-0.396449
-0.403395
-0.408298
-0.410076
-0.407507
-0.398388
-0.384048
-0.35806
-0.327595
-0.332571
-0.334373
-0.337746
-0.341598
-0.346278
-0.351705
-0.357926
-0.364938
-0.372688
-0.381014
-0.389611
-0.397968
-0.405425
-0.410951
-0.413406
-0.412102
-0.403205
-0.391473
-0.364505
-0.329076
-0.333653
-0.335371
-0.338626
-0.342388
-0.346984
-0.352341
-0.358513
-0.365512
-0.3733
-0.381731
-0.390521
-0.399146
-0.407004
-0.413023
-0.41585
-0.416014
-0.406662
-0.396779
-0.370205
-0.330819
-0.334919
-0.336511
-0.339595
-0.343215
-0.347671
-0.352897
-0.358954
-0.365865
-0.373602
-0.382028
-0.390882
-0.399601
-0.407654
-0.413955
-0.41693
-0.417621
-0.408365
-0.399059
-0.373435
-0.332765
-0.336323
-0.337737
-0.340586
-0.344
-0.348248
-0.353272
-0.359133
-0.365864
-0.373442
-0.381732
-0.390498
-0.399118
-0.407117
-0.413383
-0.416178
-0.41691
-0.407594
-0.397864
-0.373315
-0.334856
-0.33782
-0.338998
-0.341537
-0.344672
-0.348638
-0.353382
-0.358966
-0.365424
-0.372739
-0.38077
-0.389283
-0.397612
-0.40532
-0.411242
-0.413588
-0.413677
-0.404272
-0.393159
-0.369342
-0.33704
-0.339371
-0.340248
-0.342399
-0.345176
-0.348785
-0.353176
-0.358408
-0.364517
-0.37148
-0.379145
-0.387272
-0.395145
-0.402329
-0.407593
-0.409208
-0.407963
-0.398261
-0.385201
-0.361466
-0.339273
-0.340946
-0.341452
-0.343134
-0.345477
-0.34866
-0.352637
-0.357462
-0.363166
-0.369716
-0.376936
-0.384561
-0.391838
-0.398214
-0.402508
-0.402986
-0.399924
-0.389426
-0.374338
-0.350202
-0.341522
-0.342522
-0.342587
-0.343724
-0.345564
-0.348264
-0.351784
-0.356169
-0.361439
-0.367532
-0.374253
-0.381242
-0.387759
-0.392987
-0.395965
-0.394807
-0.389684
-0.37789
-0.361106
-0.336605
-0.343771
-0.344091
-0.343648
-0.344169
-0.34545
-0.347626
-0.350667
-0.354599
-0.359422
-0.36503
-0.371172
-0.377355
-0.382866
-0.386578
-0.387841
-0.384643
-0.377433
-0.364193
-0.346336
-0.321965
-0.346016
-0.345647
-0.344644
-0.344489
-0.345167
-0.346798
-0.349354
-0.352835
-0.357198
-0.362264
-0.367694
-0.372849
-0.377005
-0.378874
-0.378065
-0.3727
-0.363623
-0.349213
-0.331033
-0.307394
-0.348273
-0.347202
-0.345598
-0.34472
-0.344769
-0.345848
-0.347922
-0.350952
-0.354817
-0.359235
-0.363742
-0.367588
-0.370014
-0.369825
-0.366789
-0.359453
-0.348957
-0.333892
-0.316065
-0.293574
-0.35057
-0.348785
-0.346538
-0.344909
-0.34432
-0.34485
-0.346446
-0.348997
-0.352275
-0.355869
-0.359177
-0.361425
-0.361841
-0.359554
-0.354413
-0.345545
-0.334156
-0.318947
-0.301961
-0.280781
-0.352948
-0.350426
-0.34751
-0.345116
-0.343888
-0.343873
-0.344975
-0.346978
-0.349514
-0.352043
-0.353868
-0.354285
-0.352606
-0.348371
-0.341464
-0.331584
-0.319724
-0.304768
-0.288901
-0.269029
-0.355463
-0.352167
-0.348567
-0.345402
-0.343541
-0.342972
-0.343527
-0.344855
-0.346437
-0.347636
-0.34775
-0.346232
-0.34258
-0.336682
-0.328439
-0.317985
-0.305907
-0.291482
-0.276795
-0.258172
-0.358176
-0.354054
-0.349765
-0.345831
-0.343335
-0.342178
-0.342087
-0.342559
-0.34294
-0.342571
-0.340857
-0.337455
-0.332087
-0.324862
-0.315693
-0.304959
-0.29279
-0.279063
-0.265337
-0.24797
-0.361153
-0.356142
-0.351162
-0.346459
-0.343307
-0.341491
-0.340609
-0.34
-0.33894
-0.336845
-0.33331
-0.328196
-0.321425
-0.313189
-0.303431
-0.292576
-0.280423
-0.267412
-0.254125
-0.238199
-0.364467
-0.358484
-0.352811
-0.347322
-0.343466
-0.340887
-0.339025
-0.337095
-0.334402
-0.330525
-0.325278
-0.318691
-0.310812
-0.301835
-0.291726
-0.280834
-0.268841
-0.256436
-0.243068
-0.22877
-0.368198
-0.361127
-0.354751
-0.348433
-0.343797
-0.340318
-0.337257
-0.33378
-0.329336
-0.323717
-0.316935
-0.309123
-0.300387
-0.290879
-0.280572
-0.269703
-0.258001
-0.246074
-0.232898
-0.219672
-0.372391
-0.364126
-0.357037
-0.349815
-0.344307
-0.339757
-0.335246
-0.330035
-0.323799
-0.316546
-0.308427
-0.299616
-0.29022
-0.280335
-0.269924
-0.259141
-0.247765
-0.236204
-0.223817
-0.211668
-0.377115
-0.367526
-0.359679
-0.351449
-0.344969
-0.339122
-0.332916
-0.325847
-0.317856
-0.309119
-0.299859
-0.290239
-0.280333
-0.270179
-0.259729
-0.249076
-0.238017
-0.22694
-0.21526
-0.203985
-0.382428
-0.371367
-0.362672
-0.353332
-0.345744
-0.338327
-0.330211
-0.321235
-0.31158
-0.301526
-0.291299
-0.281021
-0.270716
-0.260372
-0.249929
-0.239427
-0.228714
-0.218086
-0.207069
-0.196707
-0.388374
-0.37568
-0.365999
-0.355478
-0.346565
-0.337279
-0.3271
-0.316235
-0.30504
-0.293827
-0.282782
-0.271961
-0.261339
-0.250862
-0.240458
-0.230132
-0.219755
-0.209581
-0.199213
-0.189551
-0.394996
-0.380477
-0.369652
-0.357897
-0.347327
-0.335895
-0.323571
-0.310883
-0.298284
-0.286057
-0.274314
-0.263043
-0.252167
-0.2416
-0.231259
-0.221117
-0.211079
-0.201333
-0.191535
-0.182532
-0.402326
-0.385739
-0.373659
-0.36055
-0.347912
-0.334112
-0.319624
-0.305212
-0.291346
-0.27823
-0.265887
-0.254236
-0.243156
-0.232534
-0.222274
-0.212327
-0.202615
-0.193272
-0.184013
-0.17557
-0.410387
-0.391419
-0.378079
-0.363325
-0.348202
-0.331882
-0.315266
-0.299246
-0.28424
-0.270342
-0.25748
-0.245508
-0.234266
-0.223616
-0.213452
-0.203705
-0.194309
-0.185345
-0.176574
-0.168641
-0.419173
-0.397452
-0.382968
-0.366061
-0.348091
-0.329171
-0.3105
-0.292996
-0.276967
-0.26238
-0.249066
-0.236822
-0.225454
-0.214803
-0.204747
-0.195204
-0.186112
-0.177503
-0.169188
-0.161711
-0.428637
-0.403783
-0.388308
-0.368588
-0.347485
-0.32595
-0.305327
-0.286463
-0.269517
-0.25432
-0.240614
-0.228143
-0.216683
-0.206053
-0.196118
-0.186782
-0.177982
-0.169708
-0.161816
-0.154754
-0.438666
-0.410384
-0.393951
-0.37075
-0.3463
-0.322194
-0.299739
-0.279636
-0.261869
-0.246135
-0.232093
-0.219437
-0.207916
-0.19733
-0.187529
-0.178403
-0.169883
-0.161928
-0.154433
-0.147747
-0.449073
-0.417251
-0.399623
-0.372405
-0.344469
-0.317872
-0.293722
-0.272497
-0.253998
-0.237795
-0.223469
-0.210671
-0.19912
-0.188601
-0.178946
-0.170035
-0.161787
-0.154137
-0.147015
-0.140672
-0.459612
-0.424382
-0.40497
-0.373412
-0.341931
-0.312955
-0.287252
-0.265022
-0.245878
-0.22927
-0.214712
-0.201813
-0.190267
-0.179836
-0.170341
-0.16165
-0.153668
-0.146314
-0.139545
-0.133515
-0.470003
-0.431741
-0.409635
-0.373621
-0.338631
-0.307412
-0.280302
-0.257182
-0.237476
-0.220531
-0.205794
-0.192838
-0.181328
-0.171011
-0.161691
-0.153226
-0.145505
-0.138441
-0.132005
-0.126263
-0.479961
-0.439218
-0.413318
-0.372886
-0.334515
-0.301211
-0.272842
-0.248945
-0.228764
-0.211548
-0.196688
-0.183718
-0.172281
-0.162102
-0.152974
-0.144742
-0.137284
-0.130505
-0.124386
-0.11891
-0.489221
-0.4466
-0.415795
-0.371069
-0.329526
-0.294317
-0.264838
-0.24028
-0.219711
-0.202295
-0.187369
-0.174432
-0.163104
-0.153091
-0.144174
-0.136185
-0.12899
-0.122496
-0.11668
-0.11145
-0.49755
-0.453575
-0.416911
-0.368053
-0.323608
-0.286694
-0.256256
-0.231154
-0.21029
-0.192748
-0.177816
-0.164961
-0.153779
-0.143962
-0.135276
-0.127541
-0.120615
-0.114406
-0.10888
-0.103883
-0.504749
-0.459756
-0.416557
-0.363747
-0.316708
-0.278307
-0.247067
-0.221541
-0.200476
-0.182885
-0.16801
-0.155289
-0.144294
-0.134703
-0.126269
-0.118802
-0.112153
-0.106231
-0.100985
-0.0962101
-0.510646
-0.464722
-0.414644
-0.358087
-0.308781
-0.269126
-0.237243
-0.211416
-0.19025
-0.172689
-0.157938
-0.145402
-0.134637
-0.125304
-0.117146
-0.109963
-0.103601
-0.0979692
-0.0929945
-0.0884378
-0.515057
-0.468054
-0.411081
-0.351031
-0.29979
-0.259122
-0.226761
-0.20076
-0.179594
-0.162148
-0.147587
-0.135292
-0.1248
-0.115759
-0.107901
-0.10102
-0.0949569
-0.0896209
-0.0849121
-0.0805735
-0.517781
-0.469382
-0.405764
-0.342538
-0.289696
-0.248262
-0.215594
-0.189551
-0.168492
-0.151248
-0.136947
-0.12495
-0.114777
-0.106064
-0.0985295
-0.0919692
-0.0862211
-0.0811914
-0.076748
-0.072622
-0.518839
-0.468525
-0.398629
-0.332574
-0.278461
-0.236512
-0.203718
-0.17777
-0.15693
-0.139976
-0.126009
-0.114368
-0.104562
-0.0962151
-0.0890329
-0.0828135
-0.0773957
-0.0726895
-0.0685173
-0.0645861
-0.518014
-0.465232
-0.38958
-0.321109
-0.266065
-0.223855
-0.191118
-0.165409
-0.1449
-0.128328
-0.114769
-0.103546
-0.0941535
-0.0862086
-0.0794193
-0.0735614
-0.0684888
-0.0641232
-0.0602221
-0.056485
-0.515117
-0.459361
-0.378563
-0.30813
-0.252497
-0.210279
-0.177786
-0.15246
-0.132399
-0.116304
-0.10323
-0.0924892
-0.083557
-0.0760496
-0.0696949
-0.064223
-0.0595208
-0.0554943
-0.0518486
-0.048349
-0.509969
-0.450817
-0.365537
-0.293626
-0.23775
-0.195776
-0.163713
-0.13892
-0.119425
-0.103913
-0.091399
-0.0812059
-0.0727858
-0.0657612
-0.0598519
-0.0548002
-0.0504917
-0.0468103
-0.0434254
-0.0401853
-0.502377
-0.439539
-0.35048
-0.277594
-0.22182
-0.180338
-0.1489
-0.124799
-0.105996
-0.0911724
-0.0792966
-0.0696978
-0.0618406
-0.0553415
-0.0499047
-0.0453007
-0.0414079
-0.0380836
-0.0349717
-0.0320067
-0.492151
-0.425497
-0.333387
-0.260034
-0.204701
-0.163972
-0.133374
-0.110124
-0.0921449
-0.0780748
-0.0669161
-0.0579769
-0.0507326
-0.0447968
-0.0398691
-0.0357376
-0.0322804
-0.0293277
-0.0265023
-0.0238295
-0.47911
-0.408682
-0.314268
-0.240952
-0.186387
-0.146721
-0.117182
-0.0949129
-0.0778552
-0.0646398
-0.0542734
-0.0460579
-0.0394753
-0.0341408
-0.0297575
-0.0261243
-0.0231227
-0.0205563
-0.0180312
-0.015671
-0.463095
-0.389102
-0.29315
-0.220366
-0.166924
-0.128665
-0.100307
-0.079168
-0.0631524
-0.0508887
-0.0413885
-0.0339576
-0.0280846
-0.02339
-0.0195839
-0.0164755
-0.0139491
-0.0117835
-0.00957389
-0.00754812
-0.443983
-0.366776
-0.270056
-0.198348
-0.146462
-0.109726
-0.0827776
-0.0629206
-0.0480647
-0.0368456
-0.0282839
-0.0216958
-0.0165788
-0.0125618
-0.00936421
-0.00680651
-0.0047747
-0.00302453
-0.00114682
0.000522078
-0.42169
-0.341763
-0.244986
-0.17503
-0.124973
-0.0899734
-0.064634
-0.0462075
-0.0326242
-0.0225385
-0.014985
-0.00929502
-0.00497846
-0.00167521
0.000883682
0.00286582
0.00438437
0.00570384
0.00723133
0.00852176
-0.39619
-0.314221
-0.217945
-0.150451
-0.102497
-0.0694717
-0.0459233
-0.0290697
-0.0168672
-0.00799903
-0.0015198
0.00321951
0.00669377
0.00924913
0.0111408
0.0125239
0.0135112
0.0143835
0.0155399
0.0164317
-0.367504
-0.284398
-0.189114
-0.124473
-0.0790949
-0.0482884
-0.0267005
-0.0115537
-0.000834208
0.00673734
0.0120803
0.0158202
0.0184133
0.0201891
0.0213869
0.0221496
0.022589
0.0229967
0.0237583
0.0242319
-0.335711
-0.25232
-0.158583
-0.097279
-0.0548461
-0.0264948
-0.00702698
0.00628885
0.0154301
0.0216317
0.0257814
0.0284771
0.0301536
0.0311208
0.0316005
0.0317237
0.0316023
0.03153
0.0318711
0.0319045
-0.300973
-0.21738
-0.127011
-0.0690563
-0.0298405
-0.00416726
0.01303
0.024401
0.0318768
0.0366417
0.0395465
0.041158
0.0418863
0.0420187
0.041758
0.0412263
0.0405366
0.0399748
0.0398706
0.039438
-0.263542
-0.179986
-0.0941715
-0.0399614
-0.00418461
0.0186108
0.033398
0.042721
0.0484532
0.0517219
0.0533365
0.0538287
0.0535812
0.0528554
0.0518345
0.0506364
0.0493774
0.0483208
0.0477429
0.0468168
-0.223464
-0.140657
-0.0601007
-0.0101287
0.0220033
0.0417477
0.0539991
0.0611826
0.0651029
0.0668239
0.0671095
0.0664532
0.0652067
0.0636026
0.0618058
0.0599351
0.0581095
0.056542
0.0554292
0.0539673
-0.180397
-0.10042
-0.0250042
0.0203125
0.0485999
0.0651442
0.0747506
0.0797157
0.0817662
0.0818969
0.0808219
0.0789938
0.0767297
0.0742321
0.0716504
0.0691098
0.06672
0.0645927
0.0628006
0.0606752
-0.135141
-0.0591881
0.0108812
0.0512155
0.0754756
0.0886941
0.0955647
0.0982469
0.0983812
0.096888
0.0944287
0.0914113
0.0881163
0.0847162
0.0813497
0.0781509
0.0751956
0.0724226
0.0697246
0.0667063
-0.0879681
-0.0170441
0.0473183
0.082415
0.102495
0.112286
0.11635
0.1167
0.114884
0.111743
0.107883
0.103666
0.0993321
0.0950271
0.0908835
0.087039
0.0835046
0.0799927
0.076236
0.0724688
-0.0390974
0.0258174
0.0840838
0.113745
0.129523
0.13581
0.137015
0.134997
0.131208
0.126406
0.121138
0.115715
0.110341
0.105136
0.100226
0.0957356
0.091586
0.0872912
0.0825937
0.0793747
0.0106693
0.0690904
0.120964
0.145045
0.156427
0.159153
0.157464
0.153059
0.147286
0.140818
0.134141
0.127516
0.121108
0.115013
0.109346
0.104197
0.0993915
0.0943872
0.0892013
0.0862944
0.0609924
0.112501
0.157721
0.176123
0.183055
0.182192
0.177597
0.170802
0.163048
0.154921
0.146844
0.139025
0.131595
0.124625
0.118212
0.112396
0.10694
0.101346
0.095862
0.0929138
0.111469
0.155732
0.194116
0.206796
0.209259
0.204806
0.197313
0.188141
0.178423
0.168654
0.159194
0.1502
0.141766
0.133939
0.126787
0.120306
0.114235
0.108151
0.102402
0.0991732
0.161676
0.198463
0.229911
0.236873
0.234888
0.226874
0.216513
0.204995
0.193341
0.181958
0.171141
0.160997
0.151583
0.142919
0.135042
0.127914
0.12127
0.114751
0.10872
0.105109
0.211191
0.240377
0.264865
0.266169
0.259792
0.248272
0.235095
0.221278
0.207732
0.194774
0.182635
0.171372
0.161007
0.151531
0.14295
0.135199
0.12802
0.121099
0.114769
0.110741
0.259598
0.281159
0.298743
0.294497
0.283822
0.268881
0.252962
0.23691
0.221528
0.207044
0.193626
0.181283
0.170002
0.159743
0.150484
0.142138
0.134459
0.127158
0.120526
0.116082
0.306485
0.320503
0.331313
0.321676
0.306834
0.288583
0.270016
0.251811
0.234661
0.218711
0.204066
0.190688
0.178529
0.167522
0.157616
0.148707
0.140556
0.132896
0.125976
0.121132
0.351458
0.358111
0.362352
0.347529
0.328687
0.307265
0.286163
0.265901
0.247066
0.229719
0.213907
0.199546
0.186555
0.174838
0.164319
0.154879
0.146286
0.138289
0.131101
0.125884
0.394139
0.393698
0.391643
0.371887
0.349245
0.324815
0.301315
0.279107
0.258681
0.240016
0.223104
0.207818
0.194045
0.18166
0.170567
0.16063
0.151623
0.143317
0.135889
0.130327
0.434175
0.426986
0.418982
0.394588
0.368379
0.34113
0.315385
0.291358
0.269445
0.249551
0.231614
0.215467
0.200966
0.187962
0.176334
0.165935
0.156546
0.147957
0.140315
0.134421
0.471236
0.457714
0.444174
0.41548
0.385968
0.356113
0.328293
0.302587
0.279304
0.258276
0.239397
0.222458
0.207288
0.193715
0.181597
0.170774
0.161036
0.15219
0.144344
0.138103
0.505014
0.485647
0.467041
0.434424
0.401901
0.369672
0.339964
0.312733
0.288204
0.26615
0.246415
0.228759
0.212983
0.198895
0.186333
0.175128
0.165077
0.155999
0.147951
0.141384
0.535223
0.510569
0.487421
0.451291
0.416075
0.381724
0.350331
0.321739
0.2961
0.27313
0.252634
0.234339
0.218026
0.203479
0.190524
0.17898
0.168653
0.159369
0.151136
0.144276
0.561609
0.532292
0.505167
0.465968
0.428399
0.392197
0.359333
0.329554
0.302949
0.279181
0.258023
0.239173
0.222392
0.207448
0.19415
0.182312
0.171747
0.162284
0.153891
0.146781
0.58395
0.550651
0.520153
0.478353
0.438794
0.401024
0.366918
0.336136
0.308714
0.284273
0.262556
0.243238
0.226063
0.210783
0.197197
0.185112
0.174345
0.164732
0.156207
0.148889
0.602055
0.565508
0.532271
0.488363
0.44719
0.408152
0.373039
0.341445
0.313363
0.288379
0.26621
0.246514
0.22902
0.21347
0.19965
0.187366
0.176438
0.166704
0.158073
0.150588
0.615772
0.576748
0.541435
0.495929
0.453534
0.413535
0.377661
0.345454
0.316872
0.291476
0.268966
0.248984
0.23125
0.215495
0.2015
0.189065
0.178015
0.16819
0.159481
0.15187
0.624984
0.584287
0.547579
0.500999
0.457784
0.417141
0.380756
0.348137
0.319221
0.293549
0.27081
0.250637
0.232742
0.21685
0.202738
0.190202
0.17907
0.169185
0.160424
0.152729
0.629613
0.588071
0.550661
0.503543
0.459916
0.418949
0.382308
0.349483
0.320398
0.294589
0.271735
0.251466
0.23349
0.21753
0.203358
0.190772
0.179599
0.169683
0.160897
0.153159
0.629613
0.588071
0.550661
0.503543
0.459916
0.418949
0.382308
0.349483
0.320398
0.294589
0.271735
0.251466
0.23349
0.21753
0.203358
0.190772
0.179599
0.169683
0.160897
0.153159
0.624984
0.584287
0.547579
0.500999
0.457784
0.417141
0.380756
0.348137
0.319221
0.293549
0.27081
0.250637
0.232742
0.21685
0.202738
0.190202
0.17907
0.169185
0.160424
0.152729
0.615772
0.576748
0.541435
0.495929
0.453534
0.413535
0.377661
0.345454
0.316872
0.291476
0.268966
0.248984
0.23125
0.215495
0.2015
0.189065
0.178015
0.16819
0.159481
0.15187
0.602055
0.565508
0.532271
0.488363
0.44719
0.408152
0.373039
0.341445
0.313363
0.288379
0.26621
0.246514
0.22902
0.21347
0.19965
0.187366
0.176438
0.166704
0.158073
0.150588
0.58395
0.550651
0.520153
0.478353
0.438794
0.401024
0.366918
0.336136
0.308714
0.284273
0.262556
0.243238
0.226063
0.210783
0.197197
0.185112
0.174345
0.164732
0.156207
0.148889
0.561609
0.532292
0.505167
0.465968
0.428399
0.392197
0.359333
0.329554
0.302949
0.279181
0.258023
0.239173
0.222392
0.207448
0.19415
0.182312
0.171747
0.162284
0.153891
0.146781
0.535223
0.510569
0.487421
0.451291
0.416075
0.381724
0.350331
0.321739
0.2961
0.27313
0.252634
0.234339
0.218026
0.203479
0.190524
0.17898
0.168653
0.159369
0.151136
0.144276
0.505014
0.485647
0.467041
0.434424
0.401901
0.369672
0.339964
0.312733
0.288204
0.26615
0.246415
0.228759
0.212983
0.198895
0.186333
0.175128
0.165077
0.155999
0.147951
0.141384
0.471236
0.457714
0.444174
0.41548
0.385968
0.356113
0.328293
0.302587
0.279304
0.258276
0.239397
0.222458
0.207288
0.193715
0.181597
0.170774
0.161036
0.15219
0.144344
0.138103
0.434175
0.426986
0.418982
0.394588
0.368379
0.34113
0.315385
0.291358
0.269445
0.249551
0.231614
0.215467
0.200966
0.187962
0.176334
0.165935
0.156546
0.147957
0.140315
0.134421
0.394139
0.393698
0.391643
0.371887
0.349245
0.324815
0.301315
0.279107
0.258681
0.240016
0.223104
0.207818
0.194045
0.18166
0.170567
0.16063
0.151623
0.143317
0.135889
0.130327
0.351458
0.358111
0.362352
0.347529
0.328687
0.307265
0.286163
0.265901
0.247066
0.229719
0.213907
0.199546
0.186555
0.174838
0.164319
0.154879
0.146286
0.138289
0.131101
0.125884
0.306485
0.320503
0.331313
0.321676
0.306834
0.288583
0.270016
0.251811
0.234661
0.218711
0.204066
0.190688
0.178529
0.167522
0.157616
0.148707
0.140556
0.132896
0.125976
0.121132
0.259598
0.281159
0.298743
0.294497
0.283822
0.268881
0.252962
0.23691
0.221528
0.207044
0.193626
0.181283
0.170002
0.159743
0.150484
0.142138
0.134459
0.127158
0.120526
0.116082
0.211191
0.240377
0.264865
0.266169
0.259792
0.248272
0.235095
0.221278
0.207732
0.194774
0.182635
0.171372
0.161007
0.151531
0.14295
0.135199
0.12802
0.121099
0.114769
0.110741
0.161676
0.198463
0.229911
0.236873
0.234888
0.226874
0.216513
0.204995
0.193341
0.181958
0.171141
0.160997
0.151583
0.142919
0.135042
0.127914
0.12127
0.114751
0.10872
0.105109
0.111469
0.155732
0.194116
0.206796
0.209259
0.204806
0.197313
0.188141
0.178423
0.168654
0.159194
0.1502
0.141766
0.133939
0.126787
0.120306
0.114235
0.108151
0.102402
0.0991732
0.0609923
0.112501
0.157721
0.176123
0.183055
0.182192
0.177597
0.170802
0.163048
0.154921
0.146844
0.139025
0.131595
0.124625
0.118212
0.112396
0.10694
0.101346
0.095862
0.0929138
0.0106693
0.0690903
0.120964
0.145045
0.156427
0.159153
0.157464
0.153059
0.147286
0.140818
0.134141
0.127516
0.121108
0.115013
0.109346
0.104197
0.0993915
0.0943872
0.0892012
0.0862944
-0.0390974
0.0258174
0.0840838
0.113745
0.129523
0.13581
0.137015
0.134997
0.131208
0.126406
0.121138
0.115715
0.110341
0.105136
0.100226
0.0957356
0.091586
0.0872912
0.0825937
0.0793747
-0.0879681
-0.0170441
0.0473183
0.082415
0.102495
0.112286
0.11635
0.1167
0.114884
0.111743
0.107883
0.103666
0.0993321
0.0950271
0.0908835
0.087039
0.0835046
0.0799927
0.076236
0.0724688
-0.135141
-0.0591882
0.0108812
0.0512155
0.0754756
0.088694
0.0955647
0.0982469
0.0983811
0.096888
0.0944287
0.0914113
0.0881163
0.0847162
0.0813497
0.0781509
0.0751956
0.0724226
0.0697246
0.0667063
-0.180397
-0.10042
-0.0250042
0.0203125
0.0485999
0.0651442
0.0747506
0.0797157
0.0817662
0.0818969
0.0808219
0.0789938
0.0767297
0.0742321
0.0716504
0.0691098
0.06672
0.0645927
0.0628006
0.0606752
-0.223464
-0.140657
-0.0601007
-0.0101287
0.0220033
0.0417477
0.0539991
0.0611826
0.0651029
0.0668239
0.0671095
0.0664532
0.0652067
0.0636026
0.0618058
0.0599351
0.0581095
0.056542
0.0554292
0.0539673
-0.263542
-0.179986
-0.0941715
-0.0399614
-0.00418463
0.0186108
0.0333979
0.042721
0.0484532
0.0517219
0.0533365
0.0538287
0.0535812
0.0528553
0.0518345
0.0506364
0.0493774
0.0483208
0.0477429
0.0468168
-0.300974
-0.21738
-0.127011
-0.0690564
-0.0298405
-0.00416727
0.01303
0.024401
0.0318768
0.0366417
0.0395465
0.041158
0.0418863
0.0420187
0.041758
0.0412263
0.0405366
0.0399748
0.0398706
0.039438
-0.335711
-0.25232
-0.158583
-0.0972791
-0.0548461
-0.0264948
-0.00702699
0.00628884
0.0154301
0.0216317
0.0257814
0.0284771
0.0301536
0.0311208
0.0316005
0.0317237
0.0316023
0.03153
0.0318711
0.0319045
-0.367504
-0.284398
-0.189114
-0.124473
-0.079095
-0.0482884
-0.0267005
-0.0115537
-0.000834215
0.00673734
0.0120803
0.0158202
0.0184133
0.0201891
0.0213869
0.0221496
0.022589
0.0229967
0.0237583
0.0242319
-0.39619
-0.314221
-0.217945
-0.150451
-0.102497
-0.0694717
-0.0459233
-0.0290697
-0.0168672
-0.00799904
-0.00151981
0.00321951
0.00669376
0.00924912
0.0111408
0.0125239
0.0135112
0.0143835
0.0155399
0.0164317
-0.42169
-0.341763
-0.244986
-0.175031
-0.124973
-0.0899734
-0.064634
-0.0462075
-0.0326242
-0.0225385
-0.014985
-0.00929503
-0.00497847
-0.00167522
0.000883676
0.00286582
0.00438436
0.00570383
0.00723133
0.00852175
-0.443983
-0.366776
-0.270056
-0.198348
-0.146462
-0.109726
-0.0827776
-0.0629207
-0.0480647
-0.0368456
-0.028284
-0.0216958
-0.0165788
-0.0125618
-0.00936421
-0.00680652
-0.0047747
-0.00302453
-0.00114682
0.000522075
-0.463095
-0.389102
-0.29315
-0.220366
-0.166924
-0.128665
-0.100307
-0.079168
-0.0631524
-0.0508887
-0.0413885
-0.0339576
-0.0280846
-0.02339
-0.0195839
-0.0164755
-0.0139491
-0.0117835
-0.00957389
-0.00754812
-0.47911
-0.408682
-0.314268
-0.240952
-0.186387
-0.146721
-0.117182
-0.0949129
-0.0778552
-0.0646398
-0.0542734
-0.0460579
-0.0394753
-0.0341408
-0.0297576
-0.0261243
-0.0231227
-0.0205563
-0.0180312
-0.015671
-0.492151
-0.425497
-0.333387
-0.260035
-0.204701
-0.163972
-0.133374
-0.110124
-0.0921449
-0.0780748
-0.0669161
-0.0579769
-0.0507326
-0.0447968
-0.0398691
-0.0357376
-0.0322804
-0.0293277
-0.0265023
-0.0238296
-0.502377
-0.439539
-0.35048
-0.277594
-0.22182
-0.180338
-0.1489
-0.124799
-0.105996
-0.0911724
-0.0792966
-0.0696978
-0.0618406
-0.0553415
-0.0499047
-0.0453007
-0.0414079
-0.0380837
-0.0349717
-0.0320067
-0.509969
-0.450817
-0.365537
-0.293626
-0.23775
-0.195776
-0.163713
-0.13892
-0.119425
-0.103913
-0.091399
-0.0812059
-0.0727858
-0.0657612
-0.0598519
-0.0548002
-0.0504917
-0.0468103
-0.0434254
-0.0401853
-0.515117
-0.459361
-0.378563
-0.30813
-0.252497
-0.210279
-0.177786
-0.15246
-0.132399
-0.116304
-0.10323
-0.0924892
-0.083557
-0.0760496
-0.0696949
-0.064223
-0.0595208
-0.0554943
-0.0518486
-0.048349
-0.518014
-0.465232
-0.38958
-0.321109
-0.266065
-0.223855
-0.191118
-0.165409
-0.1449
-0.128328
-0.114769
-0.103546
-0.0941535
-0.0862086
-0.0794193
-0.0735614
-0.0684888
-0.0641232
-0.0602221
-0.056485
-0.518839
-0.468525
-0.398629
-0.332574
-0.278461
-0.236512
-0.203718
-0.17777
-0.15693
-0.139976
-0.126009
-0.114368
-0.104562
-0.0962151
-0.0890329
-0.0828135
-0.0773958
-0.0726895
-0.0685173
-0.0645861
-0.517781
-0.469382
-0.405764
-0.342538
-0.289696
-0.248262
-0.215594
-0.189551
-0.168492
-0.151248
-0.136947
-0.12495
-0.114777
-0.106064
-0.0985296
-0.0919692
-0.0862211
-0.0811914
-0.076748
-0.072622
-0.515057
-0.468054
-0.411081
-0.351031
-0.29979
-0.259122
-0.226761
-0.20076
-0.179594
-0.162148
-0.147587
-0.135292
-0.1248
-0.115759
-0.107901
-0.10102
-0.0949569
-0.0896209
-0.0849121
-0.0805735
-0.510646
-0.464722
-0.414644
-0.358087
-0.308781
-0.269126
-0.237243
-0.211416
-0.19025
-0.172689
-0.157938
-0.145402
-0.134637
-0.125304
-0.117146
-0.109963
-0.103601
-0.0979693
-0.0929945
-0.0884378
-0.504749
-0.459756
-0.416557
-0.363747
-0.316708
-0.278307
-0.247067
-0.221541
-0.200477
-0.182885
-0.16801
-0.155289
-0.144294
-0.134703
-0.126269
-0.118802
-0.112153
-0.106231
-0.100985
-0.0962101
-0.49755
-0.453575
-0.416911
-0.368053
-0.323608
-0.286694
-0.256256
-0.231155
-0.21029
-0.192748
-0.177816
-0.164961
-0.153779
-0.143962
-0.135276
-0.127541
-0.120615
-0.114406
-0.10888
-0.103883
-0.489221
-0.4466
-0.415795
-0.371069
-0.329526
-0.294317
-0.264838
-0.24028
-0.219711
-0.202295
-0.187369
-0.174432
-0.163104
-0.153091
-0.144174
-0.136185
-0.12899
-0.122496
-0.11668
-0.11145
-0.479961
-0.439218
-0.413318
-0.372886
-0.334515
-0.301211
-0.272842
-0.248945
-0.228764
-0.211548
-0.196688
-0.183718
-0.172281
-0.162102
-0.152974
-0.144742
-0.137284
-0.130505
-0.124386
-0.11891
-0.470003
-0.431741
-0.409635
-0.373621
-0.338631
-0.307412
-0.280302
-0.257182
-0.237476
-0.220531
-0.205794
-0.192838
-0.181328
-0.171011
-0.161691
-0.153226
-0.145505
-0.138441
-0.132005
-0.126263
-0.459612
-0.424382
-0.40497
-0.373412
-0.341931
-0.312955
-0.287252
-0.265022
-0.245878
-0.22927
-0.214712
-0.201813
-0.190267
-0.179836
-0.170341
-0.16165
-0.153668
-0.146314
-0.139545
-0.133515
-0.449073
-0.417251
-0.399623
-0.372405
-0.344469
-0.317872
-0.293722
-0.272497
-0.253998
-0.237795
-0.223469
-0.210671
-0.19912
-0.188601
-0.178946
-0.170035
-0.161787
-0.154137
-0.147015
-0.140672
-0.438666
-0.410384
-0.393951
-0.37075
-0.3463
-0.322194
-0.299739
-0.279636
-0.261869
-0.246135
-0.232093
-0.219437
-0.207916
-0.19733
-0.187529
-0.178403
-0.169883
-0.161928
-0.154433
-0.147747
-0.428637
-0.403783
-0.388308
-0.368588
-0.347485
-0.325951
-0.305327
-0.286463
-0.269517
-0.25432
-0.240615
-0.228144
-0.216683
-0.206053
-0.196118
-0.186783
-0.177982
-0.169708
-0.161816
-0.154754
-0.419173
-0.397452
-0.382968
-0.366061
-0.348091
-0.329171
-0.3105
-0.292996
-0.276967
-0.26238
-0.249066
-0.236822
-0.225454
-0.214803
-0.204747
-0.195204
-0.186112
-0.177503
-0.169188
-0.161711
-0.410387
-0.391419
-0.378079
-0.363325
-0.348202
-0.331882
-0.315266
-0.299246
-0.28424
-0.270343
-0.25748
-0.245508
-0.234266
-0.223616
-0.213452
-0.203705
-0.194309
-0.185345
-0.176574
-0.168641
-0.402326
-0.385739
-0.373659
-0.36055
-0.347912
-0.334112
-0.319624
-0.305212
-0.291346
-0.27823
-0.265887
-0.254236
-0.243156
-0.232534
-0.222274
-0.212327
-0.202615
-0.193272
-0.184013
-0.17557
-0.394996
-0.380477
-0.369652
-0.357897
-0.347327
-0.335895
-0.323571
-0.310883
-0.298284
-0.286057
-0.274314
-0.263043
-0.252167
-0.2416
-0.231259
-0.221117
-0.211079
-0.201333
-0.191535
-0.182532
-0.388374
-0.37568
-0.365999
-0.355478
-0.346565
-0.337279
-0.3271
-0.316235
-0.30504
-0.293827
-0.282782
-0.271962
-0.26134
-0.250862
-0.240458
-0.230132
-0.219755
-0.209581
-0.199213
-0.189551
-0.382428
-0.371367
-0.362672
-0.353332
-0.345744
-0.338327
-0.330211
-0.321235
-0.311581
-0.301526
-0.2913
-0.281021
-0.270716
-0.260372
-0.249929
-0.239427
-0.228714
-0.218086
-0.207069
-0.196707
-0.377115
-0.367526
-0.359679
-0.351449
-0.344969
-0.339122
-0.332916
-0.325847
-0.317856
-0.30912
-0.299859
-0.290239
-0.280333
-0.270179
-0.25973
-0.249076
-0.238017
-0.22694
-0.21526
-0.203985
-0.372391
-0.364126
-0.357037
-0.349815
-0.344307
-0.339757
-0.335246
-0.330035
-0.323799
-0.316546
-0.308427
-0.299617
-0.29022
-0.280335
-0.269924
-0.259141
-0.247765
-0.236204
-0.223817
-0.211668
-0.368198
-0.361127
-0.354751
-0.348433
-0.343797
-0.340318
-0.337257
-0.33378
-0.329336
-0.323717
-0.316935
-0.309123
-0.300387
-0.290879
-0.280572
-0.269703
-0.258001
-0.246074
-0.232898
-0.219672
-0.364467
-0.358484
-0.352811
-0.347322
-0.343466
-0.340887
-0.339025
-0.337095
-0.334402
-0.330525
-0.325279
-0.318691
-0.310812
-0.301835
-0.291727
-0.280834
-0.268841
-0.256436
-0.243069
-0.22877
-0.361153
-0.356142
-0.351162
-0.346459
-0.343307
-0.341491
-0.340609
-0.34
-0.338941
-0.336846
-0.33331
-0.328197
-0.321425
-0.313189
-0.303431
-0.292576
-0.280423
-0.267413
-0.254125
-0.238199
-0.358176
-0.354054
-0.349765
-0.345831
-0.343335
-0.342178
-0.342087
-0.342559
-0.34294
-0.342571
-0.340857
-0.337455
-0.332087
-0.324862
-0.315693
-0.304959
-0.292791
-0.279063
-0.265337
-0.247971
-0.355463
-0.352167
-0.348567
-0.345402
-0.343541
-0.342972
-0.343527
-0.344855
-0.346437
-0.347636
-0.34775
-0.346232
-0.34258
-0.336682
-0.328439
-0.317985
-0.305907
-0.291483
-0.276795
-0.258172
-0.352948
-0.350426
-0.34751
-0.345116
-0.343888
-0.343873
-0.344975
-0.346978
-0.349514
-0.352044
-0.353868
-0.354285
-0.352607
-0.348372
-0.341465
-0.331584
-0.319724
-0.304768
-0.288901
-0.269029
-0.35057
-0.348785
-0.346538
-0.344909
-0.34432
-0.34485
-0.346446
-0.348997
-0.352275
-0.355869
-0.359177
-0.361425
-0.361841
-0.359554
-0.354413
-0.345546
-0.334156
-0.318947
-0.301961
-0.280781
-0.348273
-0.347202
-0.345598
-0.34472
-0.344769
-0.345848
-0.347922
-0.350952
-0.354817
-0.359235
-0.363742
-0.367589
-0.370014
-0.369825
-0.36679
-0.359453
-0.348957
-0.333893
-0.316065
-0.293575
-0.346016
-0.345647
-0.344644
-0.344489
-0.345167
-0.346798
-0.349354
-0.352835
-0.357198
-0.362265
-0.367695
-0.372849
-0.377005
-0.378874
-0.378066
-0.3727
-0.363624
-0.349214
-0.331033
-0.307394
-0.343771
-0.344091
-0.343648
-0.344169
-0.34545
-0.347626
-0.350667
-0.354599
-0.359422
-0.36503
-0.371172
-0.377355
-0.382866
-0.386578
-0.387841
-0.384644
-0.377434
-0.364193
-0.346336
-0.321965
-0.341522
-0.342522
-0.342587
-0.343724
-0.345564
-0.348264
-0.351784
-0.356169
-0.361439
-0.367532
-0.374254
-0.381243
-0.38776
-0.392987
-0.395965
-0.394807
-0.389684
-0.377891
-0.361106
-0.336605
-0.339273
-0.340946
-0.341452
-0.343134
-0.345477
-0.34866
-0.352637
-0.357462
-0.363166