/*--------------------------------*- C++ -*----------------------------------*\
  =========                 |
  \\      /  F ield         | OpenFOAM: The Open Source CFD Toolbox
   \\    /   O peration     | Website:  https://openfoam.org
    \\  /    A nd           | Version:  7
     \\/     M anipulation  |
\*---------------------------------------------------------------------------*/
FoamFile
{
    version     2.0;
    format      ascii;
    class       surfaceScalarField;
    location    "10";
    object      phi;
}
// * * * * * * * * * * * * * * * * * * * * * * * * * * * * * * * * * * * * * //

dimensions      [0 3 -1 0 0 0 0];

internalField   nonuniform List<scalar> 
23915
(
-5.04694e-05
5.04689e-05
5.10154e-10
-0.000146784
9.63137e-05
1.03308e-09
-0.000271427
0.000124641
1.32228e-09
-0.000416358
0.00014493
1.49553e-09
-0.000579989
0.000163629
1.64203e-09
-0.000763168
0.000183178
1.78361e-09
-0.000967604
0.000204434
1.91314e-09
-0.00119488
0.00022727
2.01007e-09
-0.00144594
0.000251061
2.0454e-09
-0.00172067
0.000274733
1.99052e-09
-0.00201744
0.000296768
1.8158e-09
-0.00233257
0.000315127
1.48911e-09
-0.00265981
0.00032724
9.83517e-10
-0.00298991
0.000330095
2.74721e-10
-0.00330964
0.000319729
-6.31048e-10
-0.0036026
0.000292969
-1.72986e-09
-0.00384695
0.00024435
-2.96693e-09
-0.00401472
0.000167773
-4.27246e-09
-0.0040962
8.14884e-05
-5.44353e-09
-6.79513e-05
-6.34663e-09
-0.00402825
-4.90969e-05
9.95658e-05
-0.000143003
0.00019022
-0.000264254
0.000245893
-0.000404544
0.00028522
-0.000561812
0.000320897
-0.000736328
0.000357693
-0.000929118
0.000397224
-0.00114097
0.000439127
-0.00137193
0.000482022
-0.00162084
0.000523636
-0.00188488
0.000560815
-0.00215918
0.000589423
-0.00243623
0.000604292
-0.00270583
0.000599695
-0.00295379
0.000567688
-0.00316347
0.000502649
-0.00331553
0.000396411
-0.00337403
0.000226268
-0.00334492
5.23831e-05
-0.000263664
-0.00314921
-4.64471e-05
0.000146013
-0.000135661
0.000279434
-0.000250295
0.000360526
-0.000381543
0.000416468
-0.000526457
0.000465811
-0.000684225
0.000515462
-0.000854621
0.00056762
-0.00103701
0.000621518
-0.00122983
0.000674838
-0.00143013
0.000723934
-0.00163322
0.000763902
-0.00183231
0.000788513
-0.00201803
0.000790022
-0.00217901
0.000760673
-0.00229999
0.000688663
-0.00236361
0.000566275
-0.00235784
0.000390639
-0.00223374
0.000102163
-0.0020194
-0.000161953
-0.000661736
-0.00162133
-4.26774e-05
0.00018869
-0.000125148
0.000361904
-0.000230248
0.000465626
-0.000348508
0.000534727
-0.000475776
0.00059308
-0.000609792
0.000649478
-0.00074869
0.000706517
-0.000890032
0.00076286
-0.0010303
0.000815101
-0.00116449
0.000858131
-0.00128589
0.000885296
-0.00138587
0.000888497
-0.00145337
0.000857526
-0.00147635
0.000783654
-0.00143939
0.000651701
-0.00132425
0.000451133
-0.00112492
0.000191311
-0.000799558
-0.000223201
-0.000351231
-0.000610281
-0.00126522
0.000252256
-3.80096e-05
0.0002267
-0.000112012
0.000435907
-0.000205101
0.000558716
-0.000307053
0.000636679
-0.00041233
0.000698357
-0.000517024
0.000754172
-0.000617457
0.00080695
-0.000709287
0.00085469
-0.000787048
0.000892862
-0.000843871
0.000914955
-0.000871322
0.000912747
-0.000859579
0.000876755
-0.000796542
0.000794488
-0.000670607
0.000657719
-0.000466735
0.000447829
-0.000172892
0.00015729
0.000237884
-0.000219465
0.00075695
-0.000742267
0.0014095
-0.00126283
-0.00209468
0.00223896
-3.27141e-05
0.000259414
-9.6926e-05
0.000500119
-0.000176059
0.000637848
-0.000259129
0.000719749
-0.000339165
0.000778394
-0.00041058
0.000825586
-0.000467914
0.000864285
-0.000505056
0.000891832
-0.000514868
0.000902674
-0.000489033
0.000889119
-0.000417992
0.000841706
-0.000291479
0.000750242
-9.73313e-05
0.00060034
0.000175066
0.000385322
0.000543741
7.91543e-05
0.00101087
-0.000309842
0.00160206
-0.000810649
0.00232188
-0.00146209
0.00315361
-0.00209456
-0.00311586
0.0041748
-2.70904e-05
0.000286504
-8.06387e-05
0.000553667
-0.000144458
0.000701667
-0.000206873
0.000782164
-0.000259548
0.000831069
-0.000295327
0.000861365
-0.000307152
0.000876109
-0.000287414
0.000872094
-0.00022769
0.000842951
-0.000118702
0.000780132
4.95865e-05
0.000673417
0.000287971
0.000511857
0.000608725
0.000279586
0.00101887
-2.48231e-05
0.00154124
-0.000443217
0.00216643
-0.000935035
0.00293002
-0.00157423
0.00381909
-0.00235116
0.00482093
-0.0030964
-0.00427656
0.00598162
-2.1446e-05
0.00030795
-6.39241e-05
0.000596145
-0.000111674
0.000749417
-0.000152443
0.000822934
-0.000176688
0.000855315
-0.000175877
0.000860554
-0.000141592
0.000841824
-6.50235e-05
0.000795525
6.32153e-05
0.000714712
0.000253142
0.000590205
0.00051525
0.00041131
0.000859979
0.000167128
0.00130051
-0.000160945
0.00184125
-0.000565562
0.00250792
-0.00110989
0.00328377
-0.00171088
0.00420551
-0.00249597
0.00523414
-0.0033798
0.0063842
-0.00424646
-0.00550305
0.00761068
-1.60741e-05
0.000324025
-4.75251e-05
0.000627596
-7.90181e-05
0.00078091
-9.7846e-05
0.000841762
-9.34429e-05
0.000850911
-5.60964e-05
0.000823207
2.3779e-05
0.000761948
0.000156044
0.00066326
0.000350984
0.000519772
0.000619383
0.000321805
0.000972316
5.8377e-05
0.0014208
-0.000281355
0.00197816
-0.000718311
0.00264877
-0.00123617
0.0034525
-0.00191362
0.00437282
-0.0026312
0.00543172
-0.00355487
0.00656049
-0.00450857
0.00780081
-0.00548677
-0.00670124
0.008999
-1.12328e-05
0.000335257
-3.2098e-05
0.000648461
-4.76323e-05
0.000796444
-4.47544e-05
0.000838884
-1.20185e-05
0.000818176
6.13748e-05
0.000749814
0.00018617
0.000637153
0.000373412
0.000476019
0.000634578
0.000258606
0.000981666
-2.52823e-05
0.00142683
-0.000386784
0.00198181
-0.00083634
0.00265803
-0.00139453
0.00346068
-0.00203882
0.00439292
-0.00284586
0.00543902
-0.0036773
0.00658984
-0.00470568
0.00775953
-0.00567827
0.00898817
-0.00671541
-0.00777484
0.0100618
-7.12546e-06
0.000342383
-1.81568e-05
0.000659492
-1.83826e-05
0.00079667
5.67967e-06
0.000814822
6.63389e-05
0.000757516
0.0001756
0.000640553
0.000345673
0.00046708
0.000589271
0.00023242
0.000919645
-7.17679e-05
0.00135047
-0.000456106
0.00189456
-0.000930872
0.00256307
-0.00150486
0.00336103
-0.00219248
0.00428949
-0.00296728
0.00532711
-0.00388348
0.00645293
-0.00480313
0.00761971
-0.00587246
0.00874785
-0.00680641
0.00985081
-0.00781837
-0.0086604
0.0107364
-3.88544e-06
0.000346268
-6.00705e-06
0.000661614
8.24418e-06
0.000782419
5.29892e-05
0.000770076
0.000141616
0.000668889
0.000287753
0.000494416
0.000505715
0.000249119
0.000810592
-7.24581e-05
0.0012178
-0.000478976
0.00174195
-0.000980251
0.00239423
-0.00158316
0.00318043
-0.00229105
0.00409274
-0.0031048
0.00511914
-0.00399369
0.00621227
-0.0049766
0.00734184
-0.00593269
0.00843437
-0.00696499
0.00943662
-0.00780866
0.0103413
-0.00872306
-0.00935318
0.0110341
-1.56868e-06
0.000347837
4.17896e-06
0.000655866
3.22129e-05
0.000754385
9.75667e-05
0.000704723
0.000215267
0.00055119
0.000401338
0.000308344
0.00067302
-2.25636e-05
0.00104817
-0.000447604
0.00154343
-0.000974241
0.00217135
-0.00160817
0.00293593
-0.00234773
0.00383003
-0.00318516
0.00482713
-0.0041019
0.00589621
-0.00506277
0.00697172
-0.00605211
0.00801968
-0.00698065
0.00896538
-0.00791069
0.00979386
-0.00863714
0.0104981
-0.00942729
-0.00989814
0.0110431
-9.80257e-08
0.000347935
1.25461e-05
0.000643222
5.40076e-05
0.000712923
0.000140739
0.000617991
0.000290294
0.000401635
0.000522064
7.65743e-05
0.00085674
-0.000357239
0.00131396
-0.000904819
0.00190819
-0.00156848
0.00264373
-0.00234371
0.0035097
-0.00321371
0.00447942
-0.00415488
0.0055071
-0.00512958
0.00654627
-0.00610194
0.00753036
-0.0070362
0.00843496
-0.00788525
0.00920635
-0.00868207
0.00986882
-0.00929962
0.0104212
-0.00997965
-0.0103539
0.0108769
5.89717e-07
0.000347345
1.95869e-05
0.000624225
7.46664e-05
0.000657844
0.00018479
0.000507867
0.000371123
0.000215302
0.000657209
-0.000209512
0.00106648
-0.000766508
0.00161689
-0.00145523
0.00231414
-0.00226572
0.0031462
-0.00317577
0.00408152
-0.00414903
0.00507343
-0.00514679
0.0060653
-0.00612144
0.00700846
-0.0070451
0.00785431
-0.00788205
0.00859826
-0.00862921
0.00921487
-0.00929868
0.00975518
-0.00983993
0.0102123
-0.0104368
-0.0107639
0.0106224
7.54329e-07
0.000346591
2.59217e-05
0.000599058
9.57229e-05
0.000588043
0.00023284
0.00037075
0.000463169
-1.50269e-05
0.000814294
-0.000560637
0.00130936
-0.00126157
0.00195795
-0.00210383
0.00274853
-0.0030563
0.00364678
-0.00407402
0.0046014
-0.00510365
0.00555458
-0.00609997
0.00645382
-0.00702069
0.00726375
-0.00785503
0.0079639
-0.00858219
0.0085682
-0.00923351
0.00907273
-0.0098032
0.00953657
-0.0103038
0.00993738
-0.0108376
-0.0111533
0.0103267
6.68436e-07
0.000345922
3.24041e-05
0.000567322
0.000119124
0.000501323
0.00028858
0.000201293
0.000572069
-0.000298515
0.000999203
-0.000987771
0.00158661
-0.00184898
0.00232655
-0.00284376
0.00318367
-0.00391342
0.00410234
-0.0049927
0.00502113
-0.00602244
0.00588618
-0.00696501
0.00666276
-0.00779727
0.00733684
-0.00852912
0.00791307
-0.00915842
0.00841382
-0.00973426
0.00884644
-0.0102358
0.00926387
-0.0107212
0.0096292
-0.0112029
-0.0115364
0.0100123
6.34385e-07
0.000345288
4.00302e-05
0.000527926
0.000147074
0.000394279
0.000355871
-7.50398e-06
0.00070258
-0.000645225
0.00121393
-0.00149912
0.00189087
-0.00252592
0.00270042
-0.00365331
0.0035835
-0.0047965
0.00447291
-0.00588211
0.00531181
-0.00686133
0.00606351
-0.00771671
0.00671619
-0.00844994
0.00727482
-0.00908775
0.00775847
-0.00964207
0.00818817
-0.010164
0.0085764
-0.010624
0.00896226
-0.0111071
0.00930404
-0.0115447
-0.0119215
0.00968915
9.45766e-07
0.000344342
4.98549e-05
0.000479017
0.000181837
0.000262297
0.000438197
-0.000263863
0.000857274
-0.0010643
0.00145458
-0.00209642
0.00220575
-0.0032771
0.00305044
-0.004498
0.00391473
-0.00566079
0.00473466
-0.00670205
0.00547044
-0.00759711
0.00610763
-0.0083539
0.00665337
-0.00899568
0.00712387
-0.00955825
0.00754237
-0.0100606
0.00792423
-0.0105458
0.00828425
-0.0109841
0.00864334
-0.0114661
0.00896946
-0.0118708
-0.0123104
0.00935839
1.91061e-06
0.000342432
6.2908e-05
0.00041802
0.000225521
9.96838e-05
0.000538042
-0.000576384
0.0010352
-0.00156146
0.00171059
-0.00277181
0.00250878
-0.00407529
0.00334881
-0.00533803
0.00415656
-0.00646854
0.00488421
-0.0074297
0.00551393
-0.00822682
0.0060504
-0.00889037
0.00651189
-0.00945718
0.00691846
-0.00996481
0.00729133
-0.0104334
0.00764043
-0.0108949
0.00798089
-0.0113245
0.00831391
-0.0117992
0.00862071
-0.0121776
-0.0127157
0.00902596
4.02275e-06
0.000338409
8.02193e-05
0.000341823
0.00027968
-9.97769e-05
0.00065562
-0.000952324
0.00122992
-0.00213576
0.00196444
-0.00350632
0.00277512
-0.00488598
0.00357435
-0.00613725
0.0043017
-0.0071959
0.00493139
-0.00805939
0.00546514
-0.00876058
0.00591993
-0.00934515
0.00631807
-0.00985532
0.00667877
-0.0103255
0.00701866
-0.0107733
0.00734405
-0.0112203
0.00766811
-0.0116486
0.00798305
-0.0121141
0.00829848
-0.0124931
-0.0130173
0.0086001
7.15847e-06
0.000331251
0.000102309
0.000246673
0.000345644
-0.000343112
0.000790255
-0.00139694
0.00143339
-0.00277889
0.00220064
-0.00427358
0.00299052
-0.00567586
0.00372399
-0.00687072
0.00436216
-0.00783407
0.00490019
-0.00859742
0.00535351
-0.0092139
0.00574476
-0.00973641
0.00609573
-0.0102063
0.00642245
-0.0106522
0.00673685
-0.0110877
0.00704319
-0.0115267
0.00735028
-0.0119557
0.00764817
-0.012412
0.00796496
-0.0128099
-0.0133245
0.00827212
1.16969e-05
0.000319554
0.000129937
0.000128432
0.000423628
-0.000636803
0.000937243
-0.00191055
0.00163224
-0.00347389
0.00240237
-0.0050437
0.00314462
-0.00641811
0.00379937
-0.00752547
0.00435025
-0.00838495
0.00480851
-0.00905567
0.00519711
-0.0096025
0.00553961
-0.0100789
0.00585481
-0.0105215
0.00615496
-0.0109524
0.00644825
-0.011381
0.00673731
-0.0118157
0.00702744
-0.0122458
0.00731608
-0.0127006
0.00761277
-0.0131065
-0.0136146
0.00790291
1.77545e-05
0.000301799
0.000163513
-1.73261e-05
0.000512743
-0.000986033
0.00108965
-0.00248746
0.00181359
-0.00419783
0.00255924
-0.00578936
0.00323668
-0.00709554
0.00380987
-0.00809866
0.00428156
-0.00885664
0.00467333
-0.00944745
0.00501082
-0.00993999
0.00531555
-0.0103836
0.0056025
-0.0108084
0.00588047
-0.0112304
0.00615487
-0.0116554
0.00642708
-0.0120879
0.0067022
-0.0125209
0.00697451
-0.0129729
0.00725868
-0.0133907
-0.0139013
0.00754542
2.54114e-05
0.000276388
0.000203227
-0.000195142
0.000610705
-0.00139351
0.00123887
-0.00311562
0.00196684
-0.0049258
0.00266707
-0.00648959
0.0032717
-0.00770017
0.00376719
-0.00859416
0.00417032
-0.00925977
0.00450795
-0.00978507
0.004805
-0.010237
0.0050796
-0.0106582
0.00534296
-0.0110718
0.00560114
-0.0114885
0.00585756
-0.0119118
0.00611346
-0.0123438
0.00637171
-0.0127792
0.00663052
-0.0132318
0.0069005
-0.0136607
-0.014167
0.00716614
3.4744e-05
0.000241644
0.000248968
-0.000409366
0.00071382
-0.00185836
0.00137613
-0.00377793
0.00208533
-0.005635
0.00272678
-0.00713104
0.0032576
-0.00823099
0.00368285
-0.00901941
0.00402824
-0.00960516
0.00432204
-0.0100789
0.00458651
-0.0105015
0.00483599
-0.0109077
0.00507851
-0.0113143
0.00531806
-0.0117281
0.00555696
-0.0121507
0.00579594
-0.0125828
0.00603795
-0.0130212
0.00628066
-0.0134745
0.00653321
-0.0139132
-0.01442
0.00678627
4.58576e-05
0.000195786
0.000300171
-0.00066368
0.000817293
-0.00237548
0.00149404
-0.00445467
0.00216648
-0.00630744
0.00274263
-0.00770719
0.00320314
-0.0086915
0.00356694
-0.00938321
0.00386435
-0.00990257
0.0041224
-0.0103369
0.00435976
-0.0107389
0.00458727
-0.0111352
0.00481043
-0.0115375
0.0050319
-0.0119496
0.0052532
-0.012372
0.00547519
-0.0128048
0.00569982
-0.0132458
0.00592618
-0.0137008
0.00616217
-0.0141492
-0.0146544
0.00639648
5.89047e-05
0.000136881
0.000355698
-0.000960473
0.000915846
-0.00293563
0.00158761
-0.00512643
0.002211
-0.00693083
0.00272047
-0.00821666
0.00311665
-0.00908767
0.00342773
-0.00969429
0.00368532
-0.0101602
0.00391361
-0.0105652
0.00412752
-0.0109528
0.00433491
-0.0113426
0.00453948
-0.0117421
0.004743
-0.0121531
0.00494661
-0.0125756
0.00515103
-0.0130092
0.00535807
-0.0134529
0.00556715
-0.0139099
0.00578426
-0.0143663
-0.0148714
0.00600127
7.4062e-05
6.28194e-05
0.000413837
-0.00130025
0.00100445
-0.00352625
0.00165446
-0.00577644
0.0022217
-0.00749807
0.00266661
-0.00866157
0.00300543
-0.00942649
0.00327171
-0.00996058
0.00349594
-0.0103844
0.00369872
-0.010768
0.00389151
-0.0111456
0.00407983
-0.0115309
0.00426615
-0.0119284
0.00445169
-0.0123386
0.00463733
-0.0127613
0.00482388
-0.0131958
0.00501269
-0.0136417
0.00520369
-0.0141009
0.00540197
-0.0145646
-0.0150692
0.00559981
9.14439e-05
-2.86245e-05
0.000472455
-0.00168126
0.00107904
-0.00413283
0.00169443
-0.00639183
0.00220255
-0.00800619
0.00258705
-0.00904607
0.00287556
-0.009715
0.00310377
-0.0101888
0.00329954
-0.0105802
0.00347973
-0.0109482
0.00365282
-0.0113187
0.00382263
-0.0117007
0.00399079
-0.0120965
0.00415822
-0.0125061
0.00432566
-0.0129287
0.00449388
-0.013364
0.00466405
-0.0138118
0.00483639
-0.0142732
0.00501471
-0.0147429
-0.0152476
0.00519306
0.000110977
-0.000139601
0.000529203
-0.00209949
0.00113692
-0.00474055
0.00170888
-0.00696379
0.0021579
-0.00845521
0.00248718
-0.00937535
0.00273191
-0.00995973
0.00292754
-0.0103844
0.00309845
-0.0107511
0.00325795
-0.0111077
0.00341218
-0.0114729
0.00356372
-0.0118523
0.00371371
-0.0122465
0.00386287
-0.0126552
0.00401185
-0.0130777
0.0041614
-0.0135136
0.00431249
-0.0139629
0.00446551
-0.0144263
0.00462351
-0.014901
-0.0154056
0.00478154
0.000132303
-0.000271904
0.000581714
-0.0025489
0.00117688
-0.00533572
0.0017001
-0.00748701
0.00209205
-0.00884716
0.00237159
-0.0096549
0.0025783
-0.0101664
0.00274564
-0.0105518
0.00289422
-0.0108996
0.00303426
-0.0112477
0.0031701
-0.0116087
0.00330347
-0.0119856
0.00343521
-0.0123783
0.00356592
-0.0127859
0.00369621
-0.013208
0.00382676
-0.0136441
0.00395838
-0.0140945
0.00409162
-0.0145595
0.00422871
-0.015038
-0.0155428
0.00436589
0.000154781
-0.000426685
0.000627775
-0.00302189
0.00119896
-0.0059069
0.00167081
-0.00795886
0.00200894
-0.00918528
0.0022441
-0.00989006
0.00241763
-0.01034
0.00255996
-0.0106941
0.00268797
-0.0110277
0.00280929
-0.011369
0.00292696
-0.0117264
0.00304218
-0.0121009
0.00315558
-0.0124917
0.00326769
-0.012898
0.00337906
-0.0133193
0.00349033
-0.0137554
0.00360217
-0.0142064
0.00371515
-0.0146725
0.00383098
-0.0151539
-0.0156585
0.00394672
0.000177586
-0.000604271
0.000665525
-0.00350983
0.00120401
-0.00644539
0.00162389
-0.00837873
0.00191207
-0.00947347
0.0021078
-0.0100858
0.00225212
-0.0104843
0.00237185
-0.0108138
0.00248044
-0.0111363
0.0025835
-0.0114721
0.00268312
-0.011826
0.00278016
-0.0121979
0.00287513
-0.0125867
0.0029685
-0.0129914
0.00306078
-0.0134116
0.00315253
-0.0138471
0.0032443
-0.0142981
0.00333668
-0.0147649
0.00343089
-0.0152481
-0.0157524
0.00352476
0.000199848
-0.000804119
0.000693635
-0.00400362
0.00119343
-0.00694519
0.00156211
-0.00874741
0.00180446
-0.00971583
0.00196513
-0.0102465
0.00208341
-0.0106026
0.00218227
-0.0109127
0.00227222
-0.0112262
0.00235727
-0.0115571
0.00243889
-0.0119076
0.00251771
-0.0122767
0.00259417
-0.0126631
0.00266869
-0.0130659
0.00274173
-0.0134846
0.00281375
-0.0139192
0.00288524
-0.0143696
0.00295674
-0.0148363
0.00302907
-0.0153204
-0.0158239
0.00310064
0.000220749
-0.00102487
0.000711402
-0.00449427
0.00116884
-0.00740263
0.00148807
-0.00906664
0.00168864
-0.00991639
0.00181803
-0.0103759
0.00191273
-0.0106973
0.00199195
-0.0109919
0.00206374
-0.011298
0.00213093
-0.0116243
0.00219456
-0.0119713
0.00225513
-0.0123373
0.00231303
-0.012721
0.00236862
-0.0131215
0.00242229
-0.0135383
0.00247446
-0.0139713
0.0025255
-0.0144207
0.00257589
-0.0148867
0.00262617
-0.0153707
-0.0158729
0.00267516
0.000239548
-0.00126442
0.000718723
-0.00497345
0.00113196
-0.00781587
0.00140414
-0.00933881
0.00156671
-0.010079
0.00166799
-0.0104771
0.00174098
-0.0107702
0.00180143
-0.0110524
0.00185535
-0.0113519
0.00190477
-0.0116738
0.00195043
-0.0120169
0.00199274
-0.0123796
0.00203203
-0.0127603
0.00206863
-0.0131581
0.00210287
-0.0135726
0.00213508
-0.0140035
0.00216556
-0.0144512
0.00219472
-0.0149159
0.00222281
-0.0153988
-0.0158991
0.00224899
0.000255587
-0.00152
0.000715977
-0.00543384
0.00108449
-0.00818439
0.00131236
-0.00956667
0.0014404
-0.010207
0.00151618
-0.0105529
0.00156886
-0.0108229
0.00161111
-0.0110946
0.00164738
-0.0113882
0.00167908
-0.0117055
0.00170679
-0.0120446
0.00173083
-0.0124036
0.00175152
-0.012781
0.00176911
-0.0131757
0.00178388
-0.0135873
0.00179608
-0.0140157
0.00180595
-0.014461
0.00181379
-0.0149237
0.00181967
-0.0154047
-0.0159023
0.00182292
0.000268289
-0.00178829
0.000703873
-0.00586942
0.00102806
-0.00850858
0.00121452
-0.00975313
0.00131112
-0.0103036
0.00136349
-0.0106053
0.0013969
-0.0108563
0.00142136
-0.0111191
0.00144011
-0.0114069
0.00145415
-0.0117195
0.00146393
-0.0120544
0.00146974
-0.0124094
0.00147183
-0.0127831
0.00147042
-0.0131743
0.00146572
-0.0135826
0.00145791
-0.0140079
0.00144716
-0.0144503
0.00143368
-0.0149103
0.00141739
-0.0153884
-0.0158826
0.00139768
0.000277195
-0.00206549
0.000683366
-0.00627559
0.000964189
-0.0087894
0.00111215
-0.00990109
0.00118
-0.0103715
0.00121062
-0.0106359
0.00122553
-0.0108713
0.00123248
-0.011126
0.0012338
-0.0114082
0.00123024
-0.0117159
0.00122215
-0.0120463
0.00120976
-0.0123971
0.0011933
-0.0127666
0.00117294
-0.013154
0.00114881
-0.0135585
0.00112104
-0.0139802
0.00108971
-0.014419
0.00105496
-0.0148755
0.00101656
-0.01535
-0.0158401
0.000974035
0.000280397
-0.00234588
0.000652815
-0.00664801
0.000891152
-0.00902774
0.00100339
-0.0100133
0.00104495
-0.010413
0.0010553
-0.0106462
0.00105243
-0.0108684
0.00104221
-0.0111158
0.00102636
-0.0113924
0.00100541
-0.011695
0.000979661
-0.0120206
0.00094931
-0.0123667
0.000914525
-0.0127318
0.000875422
-0.0131149
0.0008321
-0.0135152
0.000784599
-0.0139326
0.000732978
-0.0143673
0.000677227
-0.0148198
0.000616949
-0.0152897
-0.0157752
0.000552041
0.000280767
-0.00262665
0.000618432
-0.00698567
0.000816358
-0.00922566
0.000895573
-0.0100925
0.000912723
-0.0104302
0.000903679
-0.0106372
0.000883261
-0.010848
0.000855895
-0.0110884
0.000822809
-0.0113593
0.00078441
-0.0116566
0.000740933
-0.0119771
0.00069255
-0.0123183
0.000639387
-0.0126787
0.000581509
-0.013057
0.000518924
-0.0134526
0.000451636
-0.0138654
0.000379739
-0.0142954
0.000302999
-0.014743
0.000221107
-0.0152078
-0.0156877
0.00013359
0.000276965
-0.00290362
0.0005787
-0.00728741
0.000737955
-0.00938492
0.000786504
-0.0101411
0.000780886
-0.0104246
0.000753229
-0.0106095
0.000715574
-0.0108103
0.000671194
-0.011044
0.000620973
-0.0113091
0.000565228
-0.0116008
0.000504139
-0.011916
0.000437825
-0.012252
0.000366382
-0.0126072
0.000289952
-0.0129806
0.000208148
-0.0133708
0.00012122
-0.0137784
2.88946e-05
-0.0142031
-6.84297e-05
-0.0146457
-0.000171246
-0.015105
-0.0155778
-0.000281179
0.000269232
-0.00317285
0.000534517
-0.00755269
0.000656912
-0.00950731
0.000676927
-0.0101611
0.00064992
-0.0103975
0.000604268
-0.0105639
0.00054962
-0.0107557
0.000488359
-0.0109828
0.000421124
-0.0112419
0.000348136
-0.0115279
0.000269576
-0.0118375
0.000185445
-0.0121679
9.57742e-05
-0.0125176
3.11872e-07
-0.0128851
-9.98335e-05
-0.0132706
-0.000205985
-0.0136723
-0.000317893
-0.0140912
-0.000435812
-0.0145278
-0.000560421
-0.0149804
-0.0154464
-0.000691737
0.000257916
-0.00343076
0.000486724
-0.0077815
0.000574094
-0.00959468
0.000567472
-0.0101545
0.000520202
-0.0103503
0.000457044
-0.0105007
0.00038561
-0.0106842
0.000307586
-0.0109048
0.000223479
-0.0111577
0.000133316
-0.0114377
3.72771e-05
-0.0117414
-6.43318e-05
-0.0120663
-0.000171729
-0.0124102
-0.000284861
-0.012772
-0.000404335
-0.0131512
-0.000529724
-0.0135469
-0.000661325
-0.0139596
-0.000799533
-0.0143896
-0.000944915
-0.014835
-0.0152938
-0.00109755
0.000243441
-0.00367421
0.000436101
-0.00797416
0.000490246
-0.00964883
0.000458654
-0.0101229
0.00039205
-0.0102837
0.000311789
-0.0104205
0.000223732
-0.0105962
0.000129031
-0.0108101
2.79367e-05
-0.0110567
-7.88669e-05
-0.0113309
-0.000191754
-0.0116285
-0.00031086
-0.0119472
-0.000436071
-0.012285
-0.000567437
-0.0126406
-0.000705298
-0.0130133
-0.000849638
-0.0134026
-0.00100067
-0.0138086
-0.00115881
-0.0142314
-0.00132455
-0.0146693
-0.0151203
-0.00149811
0.000226269
-0.00390047
0.000383355
-0.00813125
0.000406003
-0.00967148
0.0003509
-0.0100678
0.000265734
-0.0101985
0.000168675
-0.0103234
6.39797e-05
-0.0104915
-4.70894e-05
-0.010699
-0.000164235
-0.0109395
-0.000287932
-0.0112072
-0.000417903
-0.0114986
-0.000554248
-0.0118108
-0.000697001
-0.0121422
-0.000846296
-0.0124913
-0.00100234
-0.0128572
-0.00116533
-0.0132396
-0.00133548
-0.0136384
-0.0015132
-0.0140537
-0.00169893
-0.0144835
-0.0149263
-0.00189292
0.000206867
-0.00410734
0.000329128
-0.00825351
0.000321898
-0.00966425
0.000244555
-0.00999045
0.000141452
-0.0100954
2.74729e-05
-0.0102094
-9.29002e-05
-0.0103711
-0.000220012
-0.0105719
-0.00035374
-0.0108058
-0.000494002
-0.0110669
-0.000640765
-0.0113518
-0.000794119
-0.0116575
-0.000954173
-0.0119821
-0.0011211
-0.0123244
-0.0012951
-0.0126832
-0.00147642
-0.0130583
-0.00166536
-0.0134495
-0.0018623
-0.0138568
-0.00206761
-0.0142782
-0.0147123
-0.00228157
0.000185682
-0.00429302
0.000273999
-0.00834182
0.00023839
-0.00962864
0.000139906
-0.00989197
1.87041e-05
-0.0099742
-0.000110355
-0.0100804
-0.000246916
-0.0102345
-0.000390224
-0.0104286
-0.000540158
-0.0106558
-0.000696751
-0.0109103
-0.000860052
-0.0111885
-0.00103018
-0.0114873
-0.00120728
-0.011805
-0.00139156
-0.0121401
-0.00158323
-0.0124916
-0.00178258
-0.0128589
-0.00198993
-0.0132421
-0.00220572
-0.013641
-0.00243022
-0.0140537
-0.0144789
-0.00266365
0.000163135
-0.00445616
0.000218476
-0.00839716
0.000155866
-0.00956603
3.70584e-05
-0.00977316
-0.000100015
-0.00983713
-0.000245689
-0.0099347
-0.000398152
-0.0100821
-0.000557347
-0.0102694
-0.000723239
-0.01049
-0.000895927
-0.0107376
-0.00107551
-0.0110089
-0.00126215
-0.0113007
-0.00145603
-0.0116112
-0.00165736
-0.0119388
-0.0018664
-0.0122825
-0.00208344
-0.0126419
-0.00230886
-0.0130167
-0.00254311
-0.0134067
-0.00278637
-0.0138105
-0.0142264
-0.0030388
0.000139625
-0.00459578
0.000162988
-0.00842053
7.46477e-05
-0.00947769
-6.31652e-05
-0.00963535
-0.000216691
-0.0096836
-0.000378233
-0.00977316
-0.000546346
-0.00991396
-0.00072117
-0.0100945
-0.000902769
-0.0103084
-0.0010913
-0.0105491
-0.0012869
-0.0108133
-0.00148978
-0.0110978
-0.00170014
-0.0114008
-0.00191823
-0.0117207
-0.00214431
-0.0120564
-0.00237869
-0.0124075
-0.00262181
-0.0127736
-0.00287412
-0.0131544
-0.00313573
-0.0135489
-0.0139555
-0.00340667
0.00011555
-0.00471133
0.000107952
-0.00841293
-6.02905e-06
-0.00936371
-0.000161061
-0.00948032
-0.000330729
-0.00951393
-0.000507795
-0.0095961
-0.000691306
-0.00973045
-0.000881503
-0.00990435
-0.00107854
-0.0101113
-0.00128263
-0.010345
-0.00149397
-0.010602
-0.00171279
-0.010879
-0.00193933
-0.0111743
-0.00217386
-0.0114861
-0.00241665
-0.0118137
-0.00266803
-0.0121561
-0.00292846
-0.0125131
-0.00319843
-0.0128844
-0.00347797
-0.0132693
-0.0136665
-0.00376695
9.12621e-05
-0.0048026
5.4063e-05
-0.00837573
-8.23352e-05
-0.00922731
-0.000256474
-0.00930618
-0.000441945
-0.00932846
-0.000634238
-0.0094038
-0.000832869
-0.00953182
-0.00103816
-0.00969906
-0.00125036
-0.00989912
-0.00146972
-0.0101257
-0.0016965
-0.0103752
-0.00193095
-0.0106446
-0.00217335
-0.0109319
-0.00242399
-0.0112355
-0.00268315
-0.0115545
-0.00295115
-0.0118881
-0.00322851
-0.0122358
-0.00351575
-0.0125972
-0.00381279
-0.0129723
-0.01336
-0.0041193
6.69832e-05
-0.00486958
3.889e-06
-0.00831264
-0.000157515
-0.0090659
-0.000349329
-0.00911436
-0.000550217
-0.00912758
-0.000757426
-0.00919659
-0.000970879
-0.00931837
-0.00119097
-0.00947897
-0.00141802
-0.00967208
-0.00165234
-0.00989133
-0.00189423
-0.0101333
-0.002144
-0.0103948
-0.00240193
-0.0106739
-0.00266834
-0.0109691
-0.00294351
-0.0112793
-0.00322779
-0.0116038
-0.0035217
-0.0119419
-0.00382579
-0.0122931
-0.00413988
-0.0126582
-0.0130365
-0.00446341
4.28331e-05
-0.00491241
-5.24205e-05
-0.00821738
-0.000231096
-0.00888723
-0.000439415
-0.00890604
-0.000655397
-0.00891159
-0.000877225
-0.00897477
-0.00110518
-0.00909041
-0.00133976
-0.00924439
-0.00158133
-0.00943051
-0.00183029
-0.00964237
-0.00208697
-0.00987662
-0.0023517
-0.0101301
-0.00262482
-0.0104008
-0.00290664
-0.0106873
-0.00319747
-0.0109885
-0.00349766
-0.0113036
-0.00380775
-0.0116318
-0.00412832
-0.0119725
-0.00445899
-0.0123275
-0.0126965
-0.00479895
1.96647e-05
-0.00493208
-0.000104166
-0.00809355
-0.000302562
-0.00868883
-0.000526666
-0.00868194
-0.000757372
-0.00868089
-0.000993506
-0.00873863
-0.00123564
-0.00884828
-0.00148436
-0.00899567
-0.00174012
-0.00917475
-0.00200336
-0.00937913
-0.00227447
-0.00960551
-0.00255382
-0.00985071
-0.00284176
-0.0101129
-0.00313863
-0.0103904
-0.00344474
-0.0106824
-0.00376047
-0.0109879
-0.00408637
-0.0113059
-0.00442306
-0.0116359
-0.00476996
-0.0119806
-0.0123408
-0.00512564
-1.24703e-06
-0.00493083
-0.000153624
-0.00794118
-0.000371725
-0.00847073
-0.000611042
-0.00844262
-0.000856047
-0.00843588
-0.00110614
-0.00848854
-0.0013621
-0.00859232
-0.0016246
-0.00873317
-0.00189419
-0.00890517
-0.00217135
-0.00910196
-0.00245653
-0.00932034
-0.00275012
-0.00955711
-0.00305251
-0.00981049
-0.00336405
-0.0100789
-0.00368507
-0.0103614
-0.00401595
-0.010657
-0.00435725
-0.0109646
-0.00470958
-0.0112835
-0.00507239
-0.0116178
-0.0119698
-0.00544337
-2.91684e-05
-0.00490166
-0.000201676
-0.00776867
-0.000438346
-0.00823406
-0.00069244
-0.00818853
-0.000951333
-0.00817699
-0.00121502
-0.00822484
-0.00148443
-0.00832292
-0.00176034
-0.00845726
-0.00204337
-0.00862214
-0.00233407
-0.00881126
-0.00263293
-0.00902149
-0.00294038
-0.00924966
-0.00325684
-0.00949403
-0.00358266
-0.00975303
-0.00391822
-0.0100258
-0.00426391
-0.0103113
-0.00462021
-0.0106083
-0.0049876
-0.0109161
-0.00536589
-0.0112395
-0.0115833
-0.00575242
-5.34398e-05
-0.00484822
-0.000248089
-0.00757402
-0.00050234
-0.00797981
-0.000770766
-0.0079201
-0.00104314
-0.00790461
-0.00132003
-0.00794796
-0.00160249
-0.00804046
-0.00189141
-0.00816834
-0.00218749
-0.00832606
-0.00249133
-0.00850742
-0.00280346
-0.00870935
-0.00312437
-0.00892875
-0.00345448
-0.00916392
-0.00379419
-0.00941332
-0.00414393
-0.00967608
-0.00450417
-0.00995111
-0.00487529
-0.0102372
-0.00525758
-0.0105338
-0.00565061
-0.0108465
-0.0111833
-0.00605065
-7.62944e-05
-0.00477193
-0.000292721
-0.00735759
-0.000563691
-0.00770884
-0.000845953
-0.00763784
-0.00113139
-0.00761917
-0.00142106
-0.00765829
-0.00171616
-0.00774535
-0.00201768
-0.00786682
-0.00232638
-0.00801736
-0.00264293
-0.00819086
-0.00296792
-0.00838437
-0.00330186
-0.00859481
-0.0036452
-0.00882058
-0.00399838
-0.00906013
-0.00436191
-0.00931255
-0.00473638
-0.00957664
-0.00512216
-0.00985139
-0.00551942
-0.0101366
-0.00592885
-0.0104371
-0.0107801
-0.00633207
-0.000101294
-0.00467063
-0.000339254
-0.00711963
-0.000625935
-0.00742216
-0.000921259
-0.00734252
-0.00121912
-0.00732131
-0.00152095
-0.00735645
-0.0018281
-0.00743821
-0.00214162
-0.0075533
-0.00246237
-0.00769661
-0.00279108
-0.00786215
-0.00312835
-0.00804709
-0.00347475
-0.00824842
-0.00383075
-0.00846458
-0.00419684
-0.00869404
-0.00457359
-0.0089358
-0.00496161
-0.00918862
-0.00536117
-0.00945182
-0.00577088
-0.00972687
-0.00618837
-0.0100196
-0.0103257
-0.00664268
-0.000121932
-0.0045487
-0.000379885
-0.00686168
-0.000681613
-0.00712043
-0.000989725
-0.0070344
-0.00129976
-0.00701128
-0.0016135
-0.00704272
-0.00193241
-0.0071193
-0.00225765
-0.00722806
-0.00259015
-0.00736412
-0.00293068
-0.00752162
-0.00327992
-0.00769785
-0.00363846
-0.00788989
-0.00400681
-0.00809623
-0.00438551
-0.00831534
-0.00477513
-0.00854618
-0.00517608
-0.00878767
-0.00558811
-0.00903979
-0.00601086
-0.00930413
-0.00644905
-0.00958139
-0.00986268
-0.00691211
-0.000141637
-0.00440706
-0.000418535
-0.00658478
-0.000734543
-0.00680443
-0.0010549
-0.00671405
-0.00137663
-0.00668954
-0.00170179
-0.00671756
-0.00203199
-0.0067891
-0.00236846
-0.00689158
-0.00271222
-0.00702035
-0.00306411
-0.00716973
-0.00342484
-0.00733712
-0.00379503
-0.0075197
-0.00417525
-0.00771601
-0.00456607
-0.00792451
-0.00496807
-0.00814418
-0.0053816