/*--------------------------------*- C++ -*----------------------------------*\
  =========                 |
  \\      /  F ield         | OpenFOAM: The Open Source CFD Toolbox
   \\    /   O peration     | Website:  https://openfoam.org
    \\  /    A nd           | Version:  7
     \\/     M anipulation  |
\*---------------------------------------------------------------------------*/
FoamFile
{
    version     2.0;
    format      ascii;
    class       volVectorField;
    location    "10";
    object      U;
}
// * * * * * * * * * * * * * * * * * * * * * * * * * * * * * * * * * * * * * //

dimensions      [0 1 -1 0 0 0 0];

internalField   nonuniform List<vector> 
12100
(
(-0.00922676 0.00349051 -4.05239e-20)
(-0.0385814 0.00599369 -4.93015e-20)
(-0.0788789 0.00687545 6.19355e-21)
(-0.116345 0.00716669 -1.60925e-20)
(-0.152781 0.00729998 7.91802e-20)
(-0.187377 0.0074541 2.53178e-20)
(-0.22093 0.00766187 -3.58004e-20)
(-0.253718 0.00790417 3.88741e-20)
(-0.285943 0.0081378 -5.4241e-20)
(-0.317541 0.00830659 3.22068e-20)
(-0.348232 0.00834365 1.71148e-20)
(-0.377496 0.00817181 6.31481e-21)
(-0.404577 0.00770594 -2.10983e-20)
(-0.428499 0.00686071 -1.22938e-20)
(-0.44803 0.00553404 -8.14521e-21)
(-0.46181 0.00367428 3.40187e-20)
(-0.468196 0.00116891 -3.97347e-20)
(-0.465549 -0.00203869 -8.21928e-21)
(-0.452796 -0.00529283 9.20628e-21)
(-0.425912 -0.0100729 -2.53261e-20)
(-0.00951076 0.01037 2.05525e-21)
(-0.0385692 0.01784 -3.11205e-20)
(-0.0780614 0.0204779 -6.57001e-20)
(-0.114505 0.0213404 5.36136e-20)
(-0.14965 0.0217194 3.46291e-20)
(-0.182653 0.0221504 5.41471e-21)
(-0.214242 0.0227333 1.03602e-19)
(-0.244628 0.023412 -1.69571e-19)
(-0.273941 0.0240577 1.05275e-19)
(-0.302045 0.0245033 -8.38911e-20)
(-0.328589 0.024551 1.00549e-20)
(-0.352988 0.0239744 -5.10191e-20)
(-0.374438 0.0225254 1.8791e-20)
(-0.391954 0.019965 3.85736e-20)
(-0.404304 0.01599 6.51841e-20)
(-0.410269 0.0104693 3.96695e-20)
(-0.408384 0.00314305 1.0969e-19)
(-0.39664 -0.00647047 9.87967e-21)
(-0.376299 -0.015586 -8.57541e-20)
(-0.337549 -0.0302489 5.86931e-20)
(-0.0100673 0.0169529 -1.15436e-20)
(-0.0385557 0.0292707 -4.4599e-20)
(-0.0764731 0.0336405 6.43732e-20)
(-0.110912 0.0350413 5.0251e-20)
(-0.143533 0.035606 -1.71491e-19)
(-0.173434 0.0362235 2.26519e-20)
(-0.201217 0.0370657 -1.74036e-19)
(-0.226981 0.0380432 1.43634e-20)
(-0.250735 0.0389453 -4.03899e-20)
(-0.272229 0.0394987 8.32319e-20)
(-0.291008 0.0393832 -2.56476e-20)
(-0.306412 0.0382393 3.06307e-20)
(-0.317584 0.0356728 -3.1598e-20)
(-0.323595 0.03134 -6.13529e-20)
(-0.323229 0.0247481 -7.18425e-20)
(-0.315512 0.0157383 -8.88325e-20)
(-0.299736 0.0042352 -1.7899e-19)
(-0.271804 -0.0118098 6.49513e-20)
(-0.240981 -0.0256208 5.35013e-20)
(-0.181292 -0.0500311 1.59565e-19)
(-0.010875 0.0230617 5.80855e-20)
(-0.0385614 0.0400274 2.361e-19)
(-0.0742033 0.0460834 -7.77376e-20)
(-0.105734 0.0479685 -1.6047e-19)
(-0.134704 0.0486241 -9.38644e-20)
(-0.160149 0.0492872 1.32051e-19)
(-0.182516 0.0502095 1.67322e-19)
(-0.201768 0.0512761 -1.2135e-20)
(-0.217783 0.0522022 -3.58518e-21)
(-0.230202 0.0526182 -2.39064e-19)
(-0.238492 0.0520969 -1.15977e-19)
(-0.241968 0.0501709 5.51066e-20)
(-0.239766 0.0463194 6.60881e-21)
(-0.231158 0.0401632 5.63226e-20)
(-0.214987 0.0310392 -1.72862e-19)
(-0.190318 0.0187877 6.77644e-20)
(-0.158905 0.00398583 9.96336e-20)
(-0.11008 -0.0180484 1.12829e-19)
(-0.0706589 -0.0370053 -5.94443e-20)
(0.0152176 -0.0669924 -1.30609e-19)
(-0.0119042 0.0285446 -1.58235e-19)
(-0.0386151 0.0498754 -4.60964e-20)
(-0.0713766 0.0575453 1.39367e-19)
(-0.0992049 0.0598398 7.3413e-20)
(-0.123544 0.0604637 3.64282e-19)
(-0.143387 0.0609932 -3.41967e-19)
(-0.159025 0.061771 -1.94808e-19)
(-0.170296 0.0626685 -9.48146e-21)
(-0.176972 0.0633399 -4.02344e-21)
(-0.17863 0.0633361 4.86258e-20)
(-0.174721 0.0621437 7.36218e-20)
(-0.164634 0.0592222 -2.01746e-19)
(-0.147554 0.0539406 2.49534e-19)
(-0.12313 0.0459572 1.30114e-19)
(-0.0903813 0.0344527 2.04717e-19)
(-0.0476203 0.0194339 -4.86161e-21)
(-0.00200058 0.000827824 -4.96055e-20)
(0.0694683 -0.0239327 5.8606e-21)
(0.114782 -0.0495974 -7.1771e-20)
(0.228728 -0.0813929 -1.25378e-19)
(-0.0131202 0.0332838 1.02974e-19)
(-0.0387507 0.0586133 8.5323e-21)
(-0.0681427 0.0677902 -2.59796e-19)
(-0.0916033 0.0703982 -1.29805e-19)
(-0.110502 0.0708479 -4.29972e-19)
(-0.123835 0.0710415 -1.53587e-20)
(-0.131758 0.0714247 -2.24859e-20)
(-0.134023 0.0718716 -3.88909e-20)
(-0.130348 0.0719944 1.79121e-20)
(-0.120311 0.0712858 4.97955e-20)
(-0.103417 0.0691732 4.06428e-19)
(-0.0792428 0.0650782 -1.897e-21)
(-0.0470228 0.0582861 1.50702e-19)
(-0.00690711 0.0485361 -3.73629e-19)
(0.0417357 0.0346828 4.8259e-20)
(0.102004 0.0178181 -7.83489e-20)
(0.159747 -0.00553601 -6.23393e-20)
(0.254383 -0.0301586 5.83977e-20)
(0.30155 -0.0612597 -1.26385e-19)
(0.44333 -0.0949785 1.22702e-19)
(-0.0144867 0.0372004 -2.63802e-19)
(-0.0390034 0.0660791 -4.74232e-19)
(-0.0646628 0.0766138 1.72715e-19)
(-0.0832308 0.0794179 -4.85724e-20)
(-0.0960584 0.0795388 3.87103e-19)
(-0.102203 0.079186 3.76956e-19)
(-0.101738 0.0789201 -1.31069e-19)
(-0.094377 0.0786374 1.84158e-19)
(-0.0798401 0.0779302 -2.56095e-19)
(-0.0577731 0.0762592 3.09747e-20)
(-0.0277807 0.0730245 -8.40064e-20)
(0.0103019 0.0676153 1.33558e-19)
(0.0572279 0.0592815 -5.35001e-21)
(0.112277 0.0479768 -1.3011e-19)
(0.175797 0.0315957 3.43725e-19)
(0.252675 0.0140272 -1.34636e-19)
(0.321422 -0.0136808 -1.13681e-19)
(0.436473 -0.0379786 1.76574e-19)
(0.486666 -0.0724814 6.51204e-20)
(0.649274 -0.106794 2.75147e-19)
(-0.0159688 0.0402573 1.95421e-19)
(-0.0394061 0.072156 2.18348e-19)
(-0.0610952 0.0838491 1.52837e-19)
(-0.074382 0.0867089 5.49562e-19)
(-0.0806709 0.0863416 -1.23074e-19)
(-0.0791555 0.0852385 1.88697e-19)
(-0.0698768 0.0840859 2.48732e-19)
(-0.0525644 0.0828221 -3.1637e-19)
(-0.0269836 0.081045 7.79285e-19)
(0.00712028 0.0782071 1.09677e-20)
(0.0500297 0.0737138 -5.18932e-19)
(0.101651 0.0669341 -5.41206e-20)
(0.162861 0.0570697 -5.27612e-19)
(0.232235 0.0446012 2.54768e-19)
(0.310451 0.0257141 -1.91792e-19)
(0.402097 0.00816737 2.01957e-19)
(0.484365 -0.0228177 2.82346e-19)
(0.61233 -0.0463482 1.07267e-19)
(0.670783 -0.0830549 -2.96341e-19)
(0.841227 -0.115126 -2.46738e-19)
(-0.0175365 0.0424586 -9.61218e-20)
(-0.0399842 0.0767745 5.73315e-20)
(-0.0575774 0.0893713 -4.64448e-19)
(-0.0653125 0.0921223 -2.68687e-19)
(-0.0647255 0.0911089 -2.16753e-19)
(-0.0552154 0.0890733 -1.22163e-19)
(-0.0368392 0.0868348 -6.06693e-19)
(-0.00937053 0.0843945 1.10899e-19)
(0.0273698 0.081382 -6.37021e-19)
(0.0735544 0.0772641 -1.85088e-19)
(0.129398 0.0714845 1.20847e-19)
(0.194604 0.0634338 2.24523e-19)
(0.270254 0.0521996 -6.98307e-20)
(0.354027 0.0389605 2.71308e-19)
(0.447849 0.018284 1.56554e-20)
(0.551926 0.000795968 -3.02134e-19)
(0.650561 -0.0314983 1.94532e-20)
(0.781681 -0.053521 -4.21319e-19)
(0.851815 -0.0911488 7.95993e-20)
(1.01189 -0.118009 -1.57538e-19)
(-0.0191672 0.0438463 3.66862e-19)
(-0.0407508 0.0799135 4.25776e-19)
(-0.0542082 0.0931024 1.12874e-19)
(-0.0562037 0.0955555 4.66983e-19)
(-0.0484747 0.0937468 1.31473e-19)
(-0.0306746 0.0906328 2.96331e-19)
(-0.00289626 0.0871726 3.37246e-19)
(0.0350546 0.0834511 3.15092e-19)
(0.0833403 0.079158 2.96106e-19)
(0.142119 0.0738003 -2.46617e-19)
(0.211577 0.0668965 3.91122e-19)
(0.291312 0.0578791 3.92458e-19)
(0.382317 0.0457287 5.17229e-19)
(0.481292 0.0321122 -5.02546e-19)
(0.591 0.0110314 4.49788e-20)
(0.705251 -0.00631934 4.4237e-19)
(0.817911 -0.0377238 -1.57502e-19)
(0.942398 -0.0575195 8.50943e-22)
(1.02015 -0.0942859 -1.14183e-20)
(1.15075 -0.114449 1.9673e-19)
(-0.020847 0.0444941 -2.29897e-19)
(-0.0416996 0.0815977 -3.86684e-19)
(-0.0510278 0.0950149 6.78624e-19)
(-0.0471232 0.0969591 -7.01445e-19)
(-0.0319709 0.0942228 -5.05324e-19)
(-0.00548605 0.0899392 -2.19747e-19)
(0.0322298 0.0852151 -9.6795e-20)
(0.0814014 0.0802439 -5.38068e-19)
(0.142246 0.0748079 -3.21474e-19)
(0.21497 0.0684896 -5.25276e-20)
(0.299635 0.0608784 -1.70392e-19)
(0.395651 0.0514796 -1.16061e-19)
(0.503055 0.0392257 -2.79426e-19)
(0.617604 0.0258506 -1.38771e-19)
(0.74044 0.0058443 5.16509e-20)
(0.861014 -0.0107958 -2.76604e-19)
(0.977936 -0.0396398 3.04808e-20)
(1.08682 -0.0569022 1.34521e-20)
(1.16015 -0.091176 -1.94056e-19)
(1.24903 -0.105291 1.30574e-19)
(-0.0225706 0.0444997 2.15243e-19)
(-0.0427985 0.0818921 1.71318e-19)
(-0.0479969 0.0951346 -7.87973e-19)
(-0.0379843 0.0963436 -2.66814e-19)
(-0.014995 0.092577 2.85817e-19)
(0.0208439 0.0871117 -1.52737e-19)
(0.0695064 0.0812149 4.16624e-19)
(0.131338 0.0752205 4.02618e-19)
(0.206643 0.0690365 -5.33452e-19)
(0.295556 0.0623418 -1.69657e-19)
(0.397602 0.0547626 5.41447e-19)
(0.511426 0.0458587 -6.23919e-19)
(0.634842 0.0345637 -5.7145e-19)
(0.762463 0.0222339 8.02432e-19)
(0.891406 0.00439743 -1.78332e-19)
(1.01039 -0.0109555 9.15258e-20)
(1.11765 -0.0365815 1.23048e-19)
(1.20323 -0.0515864 -1.06515e-19)
(1.25911 -0.0828328 2.87458e-19)
(1.30619 -0.0927911 3.4191e-19)
(-0.0243396 0.0439744 -6.89575e-19)
(-0.0439834 0.0809006 -6.74008e-19)
(-0.0449741 0.0935372 5.04216e-19)
(-0.0285038 0.0937859 3.22144e-19)
(0.00301224 0.0889369 1.72935e-19)
(0.0493483 0.0823908 -1.4254e-19)
(0.110671 0.0755982 -2.58707e-19)
(0.187475 0.0690705 1.32376e-19)
(0.279964 0.0628532 1.84645e-20)
(0.387669 0.0566931 2.68098e-19)
(0.50868 0.0501921 -3.0991e-19)
(0.639713 0.0427724 -1.31938e-19)
(0.775406 0.0334226 4.42206e-19)
(0.908828 0.0226739 -5.84958e-19)
(1.03328 0.0074057 -3.36289e-20)
(1.13955 -0.00677552 2.41919e-19)
(1.22512 -0.02948 -9.69709e-20)
(1.28306 -0.04305 -1.18404e-19)
(1.31582 -0.0717297 1.50334e-20)
(1.33107 -0.0792594 -1.57524e-19)
(-0.0261569 0.043032 1.06807e-19)
(-0.0451533 0.0787584 7.07633e-19)
(-0.0416975 0.0903449 -2.23049e-19)
(-0.0181638 0.0894355 -2.88423e-20)
(0.0230046 0.0835342 -2.2504e-19)
(0.0816427 0.0761673 -8.54808e-20)
(0.158172 0.0690065 7.75241e-20)
(0.253023 0.0627545 2.55328e-19)
(0.365641 0.0575534 7.31549e-20)
(0.493814 0.0530819 -5.57813e-19)
(0.632942 0.0487603 3.33457e-19)
(0.776644 0.043572 1.96417e-19)
(0.916534 0.0365874 -2.57295e-19)
(1.04458 0.027263 4.08857e-19)
(1.15315 0.0141008 3.13556e-19)
(1.23706 0.000254182 -8.21916e-20)
(1.29545 -0.0202349 1.36807e-21)
(1.32735 -0.0333982 -1.3638e-20)
(1.34024 -0.0600229 -3.73754e-19)
(1.33643 -0.0660902 -4.94768e-19)
(-0.0280219 0.0417822 6.0184e-19)
(-0.0461556 0.0756119 -1.75394e-19)
(-0.0377735 0.0857286 -4.51419e-19)
(-0.00618597 0.0835202 6.04155e-19)
(0.0463514 0.0767206 5.37589e-19)
(0.119877 0.0690126 3.90513e-19)
(0.214898 0.0623193 3.62333e-19)
(0.331058 0.0574834 -1.27066e-19)
(0.465725 0.0545747 2.35563e-19)
(0.613388 0.0529126 2.26616e-19)
(0.765731 0.0514783 -1.93437e-19)
(0.913242 0.0486238 1.38996e-19)
(1.04621 0.0435054 1.19812e-19)
(1.15748 0.0347729 -9.41833e-20)
(1.24207 0.0226582 2.12586e-19)
(1.29987 0.00821425 -2.37759e-19)
(1.33307 -0.0105836 2.84037e-19)
(1.34559 -0.0241225 5.41816e-19)
(1.34564 -0.0486865 2.63318e-19)
(1.33241 -0.0538198 4.05133e-19)
(-0.0299259 0.0403191 -1.89779e-19)
(-0.0467795 0.0716086 1.05382e-19)
(-0.0326657 0.0799024 2.61814e-19)
(0.00847166 0.0763474 -7.32985e-19)
(0.0748016 0.0689823 -1.25385e-19)
(0.166542 0.0616966 -6.30354e-19)
(0.283623 0.0566404 2.58994e-19)
(0.423432 0.0545949 -6.26154e-19)
(0.579428 0.0551831 2.46002e-19)
(0.741564 0.0569882 -5.93875e-19)
(0.898048 0.0583247 2.53829e-20)
(1.03806 0.0570658 7.62338e-20)
(1.15346 0.0525639 -1.3022e-19)
(1.24055 0.0433835 -3.3206e-19)
(1.29911 0.0312862 -1.1863e-20)
(1.33345 0.0158295 3.98101e-19)
(1.34796 -0.00140087 -3.31726e-19)
(1.3487 -0.0157581 -7.38128e-19)
(1.34173 -0.0378627 -5.31052e-19)
(1.32464 -0.0426266 1.97476e-19)
(-0.0318429 0.038712 5.98577e-21)
(-0.0467553 0.0668961 4.6776e-19)
(-0.025694 0.0731098 -1.23857e-19)
(0.0270933 0.0683027 -4.25173e-20)
(0.110371 0.0609502 1.4142e-19)
(0.224108 0.0551845 4.90934e-19)
(0.366196 0.053208 -2.43059e-19)
(0.529604 0.0552846 -2.20343e-19)
(0.70228 0.06006 1.47079e-19)
(0.869866 0.0651251 3.3367e-19)
(1.01925 0.0682006 -5.49769e-19)
(1.14151 0.0672031 4.20011e-19)
(1.23279 0.0619535 5.6207e-20)
(1.2943 0.0516432 1.44156e-19)
(1.33018 0.0390122 -3.21379e-19)
(1.34707 0.0227573 -9.25425e-20)
(1.34975 0.0071251 -8.36654e-20)
(1.34429 -0.00831218 9.30196e-20)
(1.33372 -0.0274009 3.16195e-19)
(1.31577 -0.0326284 -6.31348e-19)
(-0.0337242 0.037005 -5.06125e-20)
(-0.0457502 0.0616102 -4.5717e-20)
(-0.0160472 0.0656149 5.27941e-19)
(0.0511506 0.0598478 2.74141e-19)
(0.15514 0.0533995 -2.50059e-19)
(0.294478 0.0505842 7.22122e-20)
(0.462623 0.0531829 8.07622e-20)
(0.645911 0.0602367 7.2123e-19)
(0.826659 0.0689826 -6.14337e-19)
(0.988588 0.0761619 -8.78952e-19)
(1.1208 0.0794108 -8.75353e-19)
(1.21917 0.0773365 -1.9699e-19)
(1.28528 0.0704742 5.50346e-20)
(1.32455 0.0589237 -3.1124e-19)
(1.3435 0.0456785 -2.65991e-20)
(1.34895 0.029181 6.16909e-20)
(1.34488 0.0149827 -4.35205e-20)
(1.33643 -0.00158317 6.04571e-19)
(1.32404 -0.0170504 1.15997e-20)
(1.30694 -0.0239946 5.97195e-19)
(-0.0354981 0.0352185 4.32044e-20)
(-0.0433687 0.0558635 -5.90926e-19)
(-0.00280662 0.0576947 1.55943e-19)
(0.0822114 0.0515212 -5.2846e-19)
(0.210949 0.0472368 6.75698e-19)
(0.378322 0.0490138 -4.59543e-19)
(0.570381 0.0573373 1.90214e-20)
(0.765867 0.0693238 -3.8706e-20)
(0.943803 0.0808486 -4.83573e-19)
(1.08996 0.0884492 1.20225e-18)
(1.19881 0.0904011 5.12875e-19)
(1.27219 0.0864161 -7.39142e-20)
(1.3162 0.0777452 -2.58339e-19)
(1.33853 0.0652178 -4.67505e-19)
(1.34607 0.0515224 -1.22127e-20)
(1.34463 0.0353386 -2.10771e-19)
(1.33696 0.0221205 1.81656e-19)
(1.32718 0.00484183 -9.44266e-20)
(1.31377 -0.00662167 -6.75591e-19)
(1.29861 -0.0170949 -2.53035e-19)
(-0.0370664 0.0333464 -3.11233e-19)
(-0.0391591 0.0497431 4.07717e-19)
(0.0150213 0.0496403 -3.59587e-19)
(0.121809 0.0439496 -3.96559e-19)
(0.278989 0.0434589 -7.3987e-19)
(0.474444 0.0513736 2.93577e-19)
(0.684405 0.0657625 -2.04873e-19)
(0.881696 0.0816005 -5.99548e-19)
(1.04644 0.0941118 5.25148e-19)
(1.17019 0.100516 -4.28791e-19)
(1.25412 0.10025 6.17219e-19)
(1.3051 0.0941357 7.12687e-19)
(1.3318 0.0839033 3.86482e-19)
(1.3423 0.0707524 5.88027e-19)
(1.34267 0.0568515 -9.70398e-20)
(1.3373 0.0413213 1.41624e-19)
(1.32788 0.0285486 -4.93972e-20)
(1.31755 0.011539 3.06565e-19)
(1.30348 0.00352625 1.49851e-19)
(1.29084 -0.0124541 1.6899e-19)
(-0.0382949 0.0313525 1.62e-18)
(-0.0326258 0.04332 -4.14416e-19)
(0.0384598 0.041774 3.66906e-19)
(0.171257 0.0378714 4.50906e-19)
(0.359318 0.0430375 6.97719e-19)
(0.579489 0.0580658 -3.71889e-19)
(0.798072 0.0777824 2.20818e-19)
(0.986479 0.0956556 -2.99822e-19)
(1.13056 0.107362 -5.57035e-19)
(1.22949 0.111474 2.88801e-19)
(1.2904 0.10869 -5.24197e-19)
(1.32325 0.100642 -3.33589e-19)
(1.3374 0.0892472 3.70807e-20)
(1.34012 0.0757786 1.59291e-19)
(1.33621 0.061906 -2.95131e-20)
(1.3287 0.0470946 2.80361e-19)
(1.31856 0.0344938 2.99986e-20)
(1.30804 0.0188221 -7.10667e-19)
(1.29393 0.0120354 3.07696e-19)
(1.28279 -0.0111379 -2.81087e-19)
(-0.0390296 0.0291987 -1.13767e-18)
(-0.0232353 0.0366658 4.95962e-19)
(0.0685347 0.0344612 -5.24466e-20)
(0.231419 0.0341077 -2.58e-19)
(0.450435 0.0466701 -7.76667e-19)
(0.688302 0.0687805 5.55677e-19)
(0.904815 0.0921656 -5.08223e-19)
(1.07574 0.110106 2.26734e-19)
(1.19551 0.119681 2.82064e-19)
(1.27059 0.121022 -1.20369e-18)
(1.31215 0.115851 2.32377e-19)
(1.33131 0.106242 4.14632e-20)
(1.33685 0.0940692 5.10438e-19)
(1.33469 0.0805125 -6.19474e-20)
(1.32833 0.0668208 -6.5452e-20)
(1.31971 0.0526395 -4.82416e-20)
(1.30937 0.0403097 2.77667e-19)
(1.29878 0.0261271 2.07731e-19)
(1.28526 0.0173001 6.0313e-20)
(1.27535 0.0026637 1.72567e-19)
(-0.0391015 0.0268435 -8.29583e-20)
(-0.0104203 0.029841 -7.4613e-19)
(0.106226 0.0281316 4.13639e-19)
(0.302437 0.0334799 2.75502e-19)
(0.549259 0.0545481 -2.25394e-19)
(0.795175 0.0826118 -7.03664e-19)
(0.99984 0.107604 4.77724e-19)
(1.14799 0.123987 -1.24091e-19)
(1.24314 0.130693 9.14732e-20)
(1.29726 0.129239 7.5247e-19)
(1.32355 0.122012 -4.0415e-19)
(1.33288 0.111231 -3.73886e-19)
(1.33273 0.0985838 -3.44576e-19)
(1.32761 0.0850852 -6.43125e-20)
(1.31988 0.0716314 -2.48556e-20)
(1.31073 0.0580144 2.26808e-19)
(1.30042 0.0460877 -1.18761e-19)
(1.28987 0.0322946 -1.3463e-19)
(1.27723 0.0251919 -3.03435e-19)
(1.26718 0.00884729 -1.97083e-19)
(-0.0383144 0.0242396 -3.51229e-20)
(0.00641473 0.0229298 4.36734e-19)
(0.152348 0.0233564 -7.74417e-19)
(0.383377 0.036674 1.55078e-19)
(0.651446 0.0662882 5.39453e-19)
(0.895017 0.0984045 1.02746e-19)
(1.08057 0.123066 1.64091e-19)
(1.20391 0.136801 2.99729e-19)
(1.27628 0.140379 -3.39282e-19)
(1.31308 0.13636 -2.54087e-19)
(1.32788 0.127469 4.74296e-19)
(1.33041 0.115851 8.81264e-19)
(1.32664 0.102947 9.77002e-20)
(1.31976 0.0895784 -3.46133e-19)
(1.31129 0.0763752 1.18988e-20)
(1.30191 0.0632865 -2.93298e-19)
(1.29172 0.0514616 7.15948e-20)
(1.28139 0.0389119 -1.35649e-19)
(1.26925 0.0306419 -5.10184e-19)
(1.2601 0.0165306 2.66998e-19)
(-0.0364533 0.02135 8.52387e-20)
(0.0278944 0.0160754 8.19755e-19)
(0.207396 0.0208569 -2.51936e-19)
(0.472089 0.044002 6.95711e-19)
(0.752295 0.0810519 -5.7312e-19)
(0.984293 0.115081 6.82083e-19)
(1.14647 0.137898 -5.59388e-19)
(1.2454 0.148391 3.65065e-19)
(1.29799 0.148899 -2.38498e-19)
(1.32111 0.14266 2.57619e-20)
(1.32759 0.132473 -2.84754e-19)
(1.32556 0.120278 -4.97504e-19)
(1.31952 0.107251 -2.44523e-19)
(1.31162 0.0940328 1.70063e-19)
(1.30276 0.081075 5.71651e-20)
(1.2933 0.0683553 1.56446e-19)
(1.2833 0.0568581 -3.72855e-20)
(1.27312 0.0445936 4.57334e-19)
(1.26177 0.0367583 4.31362e-19)
(1.25271 0.0231562 1.74092e-19)
(-0.0332877 0.0181548 -7.71527e-19)
(0.0546608 0.00952838 -7.39434e-19)
(0.27133 0.0214213 5.78515e-19)
(0.565407 0.0552695 -3.5024e-20)
(0.847702 0.0978415 8.17017e-19)
(1.06122 0.13184 -4.96195e-19)
(1.19841 0.151779 2.17389e-19)
(1.27489 0.158811 -2.83317e-19)
(1.31103 0.156485 5.35509e-19)
(1.32374 0.148396 -2.13179e-19)
(1.32435 0.137221 2.10116e-19)
(1.31934 0.124629 -1.40518e-20)
(1.3119 0.111549 1.66577e-19)
(1.30339 0.0984715 -2.23104e-20)
(1.29433 0.0857057 2.51744e-19)
(1.28489 0.0733365 5.25531e-20)
(1.27507 0.0618926 -9.48076e-21)
(1.26516 0.050323 -3.10436e-19)
(1.25432 0.0420215 -1.16668e-19)
(1.24565 0.029152 -1.67019e-19)
(-0.0285671 0.0146571 1.10806e-18)
(0.0873319 0.00370444 -7.1655e-19)
(0.343364 0.0257135 1.8395e-19)
(0.65969 0.0698627 -7.28257e-19)
(0.93474 0.115765 -5.14384e-19)
(1.12544 0.148181 5.63636e-20)
(1.23799 0.164619 1.01905e-19)
(1.29477 0.168218 -2.86512e-19)
(1.31772 0.163377 5.25238e-20)
(1.32272 0.153777 4.10824e-19)
(1.3193 0.14185 -3.03583e-19)
(1.31235 0.128975 -1.81337e-19)
(1.30405 0.115866 -9.95363e-20)
(1.29519 0.102892 -8.996e-20)
(1.28604 0.090289 -1.14645e-19)
(1.27665 0.0781277 2.15251e-19)
(1.26704 0.0668516 -1.0433e-19)
(1.25735 0.0555386 -2.14848e-20)
(1.24711 0.0471432 2.80403e-19)
(1.23858 0.0349132 2.9985e-19)
(-0.0220132 0.0108891 -2.63408e-19)
(0.126413 -0.00077422 6.65339e-19)
(0.4219 0.034055 3.9958e-19)
(0.751486 0.0869868 -4.55479e-19)
(1.01176 0.134155 5.6585e-19)
(1.17758 0.163841 -3.39579e-21)
(1.2671 0.176465 5.13422e-19)
(1.30719 0.176811 3.36735e-19)
(1.31986 0.169791 2.99641e-19)
(1.31928 0.158966 -2.89386e-19)
(1.31314 0.146452 2.02713e-19)
(1.30495 0.133352 2.15029e-19)
(1.29611 0.120208 3.59337e-19)
(1.28705 0.107299 -1.89662e-19)
(1.27786 0.0947936 -4.31767e-22)
(1.26856 0.0828068 -1.80124e-19)
(1.25914 0.0715527 7.43047e-21)
(1.24972 0.0605797 -7.77469e-20)
(1.23994 0.0519102 -1.65297e-19)
(1.23162 0.0401062 -6.25582e-20)
(-0.0133117 0.00692404 -2.40067e-19)
(0.172165 -0.00310034 -2.68767e-19)
(0.504675 0.0463285 -1.39051e-20)
(0.838032 0.105889 4.31767e-19)
(1.07816 0.152566 -4.23171e-19)
(1.21878 0.178716 -4.63355e-19)
(1.2876 0.187435 1.77536e-19)
(1.31395 0.184788 -2.10455e-19)
(1.31879 0.175905 -1.346e-19)
(1.31427 0.164076 5.30209e-20)
(1.3063 0.15108 -4.58674e-19)
(1.29732 0.137777 4.22975e-19)
(1.28813 0.124573 -4.11306e-20)
(1.27895 0.111677 -9.36023e-20)
(1.26977 0.0992308 8.40481e-20)
(1.26058 0.087321 -1.26949e-19)
(1.25136 0.0761167 -1.12343e-19)
(1.24219 0.0653036 -6.03298e-21)
(1.23286 0.0564025 -8.16664e-20)
(1.2247 0.0450385 1.53064e-19)
(-0.0021138 0.00289458 2.76375e-19)
(0.224467 -0.002399 4.87952e-19)
(0.589096 0.0620724 -6.62391e-19)
(0.917446 0.125969 -2.47302e-19)
(1.13409 0.170725 -1.12595e-19)
(1.25042 0.192806 6.48902e-19)
(1.30119 0.197679 -1.73895e-19)
(1.31649 0.19233 -1.08469e-19)
(1.3155 0.181855 -1.5142e-19)
(1.30822 0.169184 1.8254e-19)
(1.29904 0.155763 6.79167e-20)
(1.28953 0.142251 -7.94499e-20)
(1.28013 0.128951 -2.12644e-19)
(1.27088 0.116024 2.18597e-20)
(1.26174 0.103579 -9.13445e-20)
(1.25267 0.0917065 1.63358e-19)
(1.24366 0.0804826 3.98691e-20)
(1.23475 0.0698001 4.13853e-20)
(1.22581 0.0606487 5.54709e-20)
(1.21781 0.0495835 -1.6146e-19)
(0.0119448 -0.00098628 -5.19804e-19)
(0.282723 0.00208086 -3.06242e-20)
(0.672613 0.0806789 -1.01161e-19)
(0.988664 0.14679 2.92289e-19)
(1.18018 0.188478 -1.0153e-19)
(1.2739 0.206168 -2.85095e-19)
(1.3093 0.207352 -4.02063e-19)
(1.31592 0.199589 2.83325e-19)
(1.31066 0.187741 -3.33468e-19)
(1.30148 0.174332 1.66063e-19)
(1.29149 0.160509 9.80271e-20)
(1.28164 0.146767 -5.13524e-20)
(1.27211 0.13333 1.21477e-19)
(1.26284 0.120325 1.36149e-19)
(1.25376 0.107841 -2.8935e-19)
(1.24482 0.095943 2.15995e-19)
(1.23601 0.0846909 1.83564e-20)
(1.22736 0.0740507 3.67212e-20)
(1.21878 0.0646425 1.76475e-19)
(1.21096 0.0538551 4.36718e-20)
(0.0291993 -0.00440601 1.54621e-19)
(0.345878 0.0107869 -6.33087e-19)
(0.753013 0.101559 5.99454e-19)
(1.05126 0.16805 2.74481e-19)
(1.2173 0.205754 -2.05602e-19)
(1.29054 0.218891 -3.4048e-19)
(1.31316 0.216599 1.18398e-20)
(1.31306 0.206683 -6.74856e-20)
(1.30472 0.193627 5.73482e-19)
(1.29424 0.179542 -2.62357e-19)
(1.28372 0.165314 -3.03104e-20)
(1.27365 0.15131 6.95015e-20)
(1.26404 0.137696 -4.321e-20)
(1.25478 0.124571 -8.86146e-20)
(1.24578 0.112004 2.48815e-19)
(1.237 0.100044 -2.04114e-19)
(1.2284 0.0887254 2.43815e-20)
(1.22 0.0780785 -1.14337e-19)
(1.21175 0.0684223 -1.1976e-19)
(1.20412 0.0578363 -3.83565e-20)
(0.0498986 -0.00695155 -1.11106e-19)
(0.412525 0.0237885 2.64767e-19)
(0.828578 0.124209 -2.4251e-19)
(1.10526 0.189533 -2.52684e-19)
(1.24641 0.222534 4.21258e-19)
(1.30153 0.231076 4.49066e-19)
(1.31369 0.225545 2.18079e-19)
(1.3085 0.213698 -3.65116e-21)
(1.29798 0.199551 -5.63288e-19)
(1.28663 0.184818 4.77054e-20)
(1.27575 0.170167 1.80558e-20)
(1.26555 0.155865 1.22073e-19)
(1.2559 0.142035 1.99919e-19)
(1.24669 0.12875 -1.0753e-20)
(1.2378 0.116063 -4.56538e-20)
(1.22918 0.104001 1.82907e-19)
(1.2208 0.0925975 -1.19359e-19)
(1.21265 0.0818902 1.45539e-19)
(1.20471 0.0719861 -1.29363e-20)
(1.19729 0.061568 1.47485e-19)
(0.0741531 -0.0081357 1.93881e-19)
(0.481067 0.0408351 1.03578e-19)
(0.898117 0.14822 -2.3786e-19)
(1.15095 0.211075 -2.96252e-19)
(1.26851 0.238827 -2.11568e-20)
(1.30789 0.242822 -4.92883e-20)
(1.31166 0.234289 2.43629e-19)
(1.30267 0.220694 1.70495e-19)
(1.29062 0.205528 1.84068e-19)
(1.27869 0.190151 -6.69785e-20)
(1.2676 0.175049 8.8464e-20)
(1.25732 0.160414 -8.15347e-20)
(1.24769 0.14633 -1.65797e-19)
(1.23855 0.132851 2.02173e-20)
(1.22979 0.120009 4.29577e-20)
(1.22135 0.107818 5.09395e-20)
(1.21319 0.0963027 6.76846e-20)
(1.20529 0.0854944 -4.05802e-20)
(1.19764 0.0753572 7.79826e-20)
(1.19044 0.0650613 -1.77761e-19)
(0.101898 -0.00745156 2.55711e-19)
(0.549888 0.0614899 -2.35097e-20)
(0.960917 0.173259 3.34002e-19)
(1.18883 0.232545 2.05027e-19)
(1.28451 0.254663 9.22789e-20)
(1.31046 0.254219 -2.2742e-19)
(1.30761 0.242906 -2.1683e-19)
(1.29585 0.227702 -6.05058e-20)
(1.28276 0.211558 -1.63614e-20)
(1.27046 0.195523 -1.59795e-20)
(1.25925 0.179939 -2.13443e-19)
(1.24896 0.164936 4.68233e-20)
(1.23938 0.150565 8.45395e-20)
(1.23035 0.13686 2.57061e-21)
(1.22175 0.123835 1.01398e-20)
(1.2135 0.111489 -2.62263e-20)
(1.20556 0.0998428 -6.29472e-20)
(1.19791 0.0888997 -5.19046e-20)
(1.19055 0.0785398 -1.07691e-19)
(1.18357 0.0683345 1.6293e-20)
(0.132886 -0.00444331 -1.57079e-19)
(0.617467 0.0852564 9.92342e-20)
(1.01665 0.199056 -4.13991e-20)
(1.21944 0.25383 9.76404e-21)
(1.29527 0.270073 -3.79593e-19)
(1.30994 0.265342 9.4525e-20)
(1.30195 0.251446 6.11146e-20)
(1.28821 0.234732 -4.23417e-20)
(1.27444 0.217628 1.52045e-19)
(1.26193 0.200913 -2.40997e-21)
(1.25068 0.184814 6.68644e-20)
(1.24044 0.16941 7.82515e-20)
(1.23096 0.154722 -5.36298e-20)
(1.22207 0.140765 -6.32173e-20)
(1.21364 0.127532 -3.42027e-20)
(1.2056 0.115011 -3.65517e-20)
(1.1979 0.103215 3.21372e-20)
(1.1905 0.0921113 3.68288e-20)
(1.18343 0.0815468 5.87911e-20)
(1.17666 0.0714011 6.74396e-20)
(0.166704 0.00122961 -7.31589e-20)
(0.682463 0.11165 -1.46964e-20)
(1.06525 0.225391 -1.34527e-19)
(1.24341 0.274838 1.25606e-19)
(1.30151 0.285088 2.7247e-19)
(1.30687 0.276248 1.49581e-19)
(1.29499 0.259935 -6.76802e-20)
(1.27989 0.24178 -3.95915e-20)
(1.26571 0.223713 -9.00426e-20)
(1.25311 0.206292 8.68404e-20)
(1.2419 0.189647 -3.38739e-21)
(1.23175 0.173813 -4.31125e-20)
(1.22241 0.158784 -5.07352e-20)
(1.21369 0.144552 -4.8551e-20)
(1.20547 0.131091 1.00694e-19)
(1.19765 0.118379 -3.41009e-20)
(1.19019 0.106417 -3.67676e-20)
(1.18306 0.0951351 -6.29152e-21)
(1.17626 0.0843829 -6.40293e-21)
(1.16972 0.0742708 -3.75296e-20)
(0.202805 0.00975552 -7.25709e-21)
(0.743757 0.140219 -9.84831e-20)
(1.10686 0.252076 4.59225e-20)
(1.26134 0.295494 -1.64921e-19)
(1.30387 0.299733 -1.15912e-19)
(1.30168 0.286975 1.73489e-20)
(1.28693 0.26838 -1.75437e-21)
(1.27094 0.248825 7.7504e-21)
(1.25656 0.229785 2.44469e-20)
(1.24399 0.21163 4.33386e-20)
(1.23288 0.194411 -5.90479e-20)
(1.22288 0.178123 2.50821e-20)
(1.21373 0.16273 4.38311e-20)
(1.20521 0.148205 -9.579e-21)
(1.19721 0.134502 -4.24408e-20)
(1.18964 0.121587 2.37861e-20)
(1.18244 0.109446 2.70964e-20)
(1.17557 0.0979745 2.73942e-20)
(1.16904 0.0870547 -1.38436e-20)
(1.16272 0.0769535 4.96162e-21)
(0.240552 0.0211704 8.11213e-20)
(0.800467 0.17054 -1.1462e-19)
(1.14173 0.278942 -1.57572e-20)
(1.27383 0.315733 6.7429e-20)
(1.3029 0.31402 1.09435e-19)
(1.29471 0.297538 -3.36936e-20)
(1.27792 0.276769 -9.66109e-20)
(1.26141 0.255838 9.60962e-20)
(1.24701 0.235807 -2.60061e-20)
(1.23455 0.216893 -3.00055e-20)
(1.22362 0.199077 2.73447e-20)
(1.21382 0.182315 -1.358e-20)
(1.20489 0.166541 -3.9941e-21)
(1.19662 0.15171 1.05983e-20)
(1.18888 0.137753 1.52155e-20)
(1.18157 0.124626 1.94839e-20)
(1.17464 0.112297 -3.46566e-20)
(1.16804 0.100633 -8.56224e-21)
(1.16178 0.0895638 -2.10873e-21)
(1.15567 0.0794536 1.02862e-20)
(0.279218 0.0353876 -4.45172e-20)
(0.851937 0.202217 7.96489e-20)
(1.17016 0.305825 -9.97482e-21)
(1.28144 0.335503 -2.16792e-20)
(1.29904 0.327954 -7.12167e-20)
(1.28621 0.307936 3.35375e-20)
(1.26805 0.285079 2.21199e-20)
(1.25132 0.262781 -2.45383e-20)
(1.23704 0.241741 -4.01962e-21)
(1.22479 0.222046 1.1733e-20)
(1.2141 0.203614 -1.27141e-20)
(1.20456 0.186363 6.40727e-21)
(1.19591 0.170197 -1.39084e-20)
(1.18792 0.155049 7.96919e-21)
(1.18045 0.140832 1.64541e-21)
(1.17343 0.127488 -7.2482e-21)
(1.16678 0.114967 4.15875e-21)
(1.16047 0.10311 -6.44004e-21)
(1.15447 0.0919106 2.09526e-21)
(1.14857 0.0817759 7.43713e-21)
(0.317992 0.052232 -3.19426e-20)
(0.897722 0.234867 6.96939e-20)
(1.19249 0.332558 -7.36209e-21)
(1.28466 0.354754 -2.78474e-20)
(1.29267 0.341527 -6.551e-20)
(1.27635 0.318153 3.30272e-20)
(1.25738 0.293273 2.15379e-20)
(1.24068 0.26961 -1.93617e-20)
(1.22664 0.247546 -2.27582e-22)
(1.21469 0.227053 9.15602e-21)
(1.20432 0.207992 -8.09119e-21)
(1.1951 0.190242 -2.21201e-21)
(1.18676 0.173676 -4.85721e-21)
(1.17909 0.158208 2.89196e-21)
(1.17194 0.143727 1.87245e-21)
(1.16522 0.130164 -7.36467e-21)
(1.15887 0.11745 8.18563e-21)
(1.15285 0.105407 -7.85936e-21)
(1.14711 0.0940928 -1.90236e-21)
(1.14143 0.08392 4.89773e-21)
(0.356076 0.0714419 9.24823e-20)
(0.93748 0.268091 -9.3981e-20)
(1.20896 0.358952 -6.8019e-20)
(1.28392 0.373434 8.89531e-20)
(1.28406 0.354724 1.01743e-19)
(1.26527 0.328163 -4.15948e-20)
(1.24595 0.301313 -6.90968e-20)
(1.22949 0.276285 7.5789e-20)
(1.21582 0.253183 -2.11839e-20)
(1.20426 0.231882 -2.47368e-20)
(1.19427 0.212183 1.93642e-20)
(1.18542 0.193928 -3.73442e-21)
(1.17745 0.176959 -9.06889e-21)
(1.17014 0.161171 2.89867e-21)
(1.16333 0.146428 1.39033e-20)
(1.15694 0.132645 1.62284e-20)
(1.1509 0.119738 -2.0289e-20)
(1.1452 0.10752 -5.35397e-21)
(1.13973 0.0961119 -3.46999e-21)
(1.13424 0.0858899 7.36909e-21)
(0.392918 0.0927884 4.11935e-20)
(0.971308 0.301629 -1.49175e-19)
(1.22007 0.384889 4.20062e-20)
(1.27966 0.391504 -1.10256e-19)
(1.2735 0.367508 -1.29062e-19)
(1.25307 0.33791 2.1e-20)
(1.23378 0.309132 8.31061e-21)
(1.21775 0.282741 -8.39904e-21)
(1.20457 0.258598 2.81763e-20)
(1.19348 0.236484 -1.10957e-21)
(1.18394 0.216147 -1.83697e-20)
(1.17554 0.197388 3.74548e-21)
(1.16798 0.180017 3.58972e-20)
(1.16106 0.163914 -3.03043e-21)
(1.15463 0.148916 -1.22182e-20)
(1.14859 0.134918 -7.06164e-21)
(1.14289 0.12182 3.07197e-20)
(1.13752 0.109437 1.31479e-20)
(1.13233 0.0979685 -7.68554e-21)
(1.12702 0.087693 -8.98678e-21)
(0.427879 0.116026 -9.14241e-20)
(0.999192 0.335192 -1.77593e-20)
(1.22612 0.410204 -1.31002e-19)
(1.27221 0.408898 1.47583e-19)
(1.26115 0.379836 1.84292e-19)
(1.23983 0.34734 7.18065e-20)
(1.2209 0.316676 -1.3194e-20)
(1.20546 0.28893 1.50023e-20)
(1.19287 0.263746 -7.64661e-20)
(1.18235 0.240825 5.49326e-20)
(1.17335 0.219853 -1.66747e-20)
(1.16545 0.200598 -1.27463e-20)
(1.15836 0.182833 -3.46877e-20)
(1.15186 0.166417 -1.05517e-20)
(1.14586 0.151176 1.63371e-20)
(1.14019 0.136976 -1.05665e-20)
(1.13484 0.123691 -1.38653e-20)
(1.12982 0.111156 3.99241e-21)
(1.12488 0.0996582 -2.46422e-21)
(1.11979 0.0893211 -2.07477e-20)
(0.460369 0.140886 -1.35099e-19)
(1.02122 0.368507 2.61703e-20)
(1.22747 0.434744 6.33684e-20)
(1.26188 0.425555 -6.97208e-20)
(1.2472 0.39165 -2.52649e-19)
(1.22559 0.356388 2.12224e-20)
(1.2073 0.323878 9.16444e-20)
(1.19261 0.29479 -3.39602e-20)
(1.18075 0.268578 7.33534e-20)
(1.17089 0.24486 -1.94841e-20)
(1.1625 0.223264 4.89019e-20)
(1.15516 0.203526 6.66928e-21)