/*--------------------------------*- C++ -*----------------------------------*\
  =========                 |
  \\      /  F ield         | OpenFOAM: The Open Source CFD Toolbox
   \\    /   O peration     | Website:  https://openfoam.org
    \\  /    A nd           | Version:  7
     \\/     M anipulation  |
\*---------------------------------------------------------------------------*/
FoamFile
{
    version     2.0;
    format      ascii;
    class       volScalarField;
    location    "15";
    object      p;
}
// * * * * * * * * * * * * * * * * * * * * * * * * * * * * * * * * * * * * * //

dimensions      [0 2 -2 0 0 0 0];

internalField   nonuniform List<scalar> 
2625
(
-0.27986
-0.266998
-0.254564
-0.242585
-0.231349
-0.220461
-0.211238
-0.200918
-0.279961
-0.267087
-0.254639
-0.24264
-0.23139
-0.220451
-0.211291
-0.20065
-0.280112
-0.267219
-0.25475
-0.242721
-0.231452
-0.220436
-0.21137
-0.200251
-0.280311
-0.267394
-0.254898
-0.24283
-0.231534
-0.220418
-0.211477
-0.199722
-0.280559
-0.267611
-0.255082
-0.242965
-0.231637
-0.220395
-0.211612
-0.199068
-0.280855
-0.26787
-0.255302
-0.243126
-0.23176
-0.220369
-0.211774
-0.198292
-0.281196
-0.268169
-0.255555
-0.243312
-0.231904
-0.22034
-0.211964
-0.1974
-0.281581
-0.268508
-0.255843
-0.243524
-0.232068
-0.220308
-0.212183
-0.196398
-0.28201
-0.268884
-0.256162
-0.24376
-0.232253
-0.220275
-0.21243
-0.195292
-0.269296
-0.256513
-0.244019
-0.232457
-0.220241
-0.212705
-0.194091
-0.269742
-0.256893
-0.244301
-0.232681
-0.220206
-0.213008
-0.192801
-0.270221
-0.257301
-0.244604
-0.232924
-0.220171
-0.213336
-0.191431
-0.270731
-0.257736
-0.244928
-0.233184
-0.220138
-0.21369
-0.189992
-0.271269
-0.258196
-0.245271
-0.233463
-0.220106
-0.214068
-0.188492
-0.271833
-0.258678
-0.245632
-0.233757
-0.220076
-0.214467
-0.186941
-0.272422
-0.259181
-0.246009
-0.234067
-0.220049
-0.214884
-0.185349
-0.273031
-0.259703
-0.2464
-0.23439
-0.220025
-0.215317
-0.183727
-0.27366
-0.260241
-0.246805
-0.234725
-0.220004
-0.215761
-0.182084
-0.274305
-0.260793
-0.247221
-0.23507
-0.219987
-0.216211
-0.18043
-0.261356
-0.247646
-0.235423
-0.219973
-0.216664
-0.178776
-0.261928
-0.248079
-0.23578
-0.219964
-0.217113
-0.17713
-0.262505
-0.248516
-0.23614
-0.219957
-0.217551
-0.175502
-0.263086
-0.248955
-0.2365
-0.219955
-0.217972
-0.1739
-0.263667
-0.249395
-0.236855
-0.219956
-0.218368
-0.172333
-0.264244
-0.249833
-0.237202
-0.21996
-0.218731
-0.170808
-0.250266
-0.237539
-0.219968
-0.21905
-0.169333
-0.250692
-0.237861
-0.219982
-0.219318
-0.167915
-0.251108
-0.238164
-0.220002
-0.219522
-0.166563
-0.251512
-0.238444
-0.220031
-0.21965
-0.165287
-0.251901
-0.238698
-0.220075
-0.21969
-0.1641
-0.238923
-0.220139
-0.219626
-0.163019
-0.239116
-0.220234
-0.219442
-0.16207
-0.239274
-0.220371
-0.21912
-0.161291
-0.239396
-0.220568
-0.218642
-0.160766
-0.220847
-0.217998
-0.160632
-0.221233
-0.217146
-0.160932
-0.221765
-0.215973
-0.16146
-0.214502
-0.163121
-0.213467
-0.172239
-0.213511
-0.198487
-0.209282
-0.213157
-0.140861
-0.137223
-0.133646
-0.130132
-0.126682
-0.123299
-0.119983
-0.116736
-0.113558
-0.110449
-0.107411
-0.104444
-0.101547
-0.0987198
-0.0959631
-0.093276
-0.090658
-0.0881083
-0.0856261
-0.0832105
-0.0808604
-0.0785746
-0.0763518
-0.0741908
-0.0720902
-0.0700484
-0.0680639
-0.0661352
-0.0642607
-0.0624386
-0.0606673
-0.196304
-0.192271
-0.188143
-0.184075
-0.180002
-0.175935
-0.171887
-0.167867
-0.163878
-0.159928
-0.156021
-0.152161
-0.148351
-0.144596
-0.140896
-0.137256
-0.133678
-0.130162
-0.126711
-0.123327
-0.12001
-0.116762
-0.113583
-0.110474
-0.107435
-0.104466
-0.101569
-0.0987411
-0.0959837
-0.0932959
-0.0906773
-0.088127
-0.0856443
-0.0832281
-0.0808774
-0.078591
-0.0763678
-0.0742063
-0.0721051
-0.0700628
-0.0680779
-0.0661487
-0.0642737
-0.0624512
-0.0606795
-0.196619
-0.192523
-0.188336
-0.184248
-0.180156
-0.176072
-0.172011
-0.16798
-0.163982
-0.160024
-0.15611
-0.152244
-0.14843
-0.14467
-0.140967
-0.137323
-0.133741
-0.130223
-0.12677
-0.123383
-0.120064
-0.116814
-0.113633
-0.110522
-0.107482
-0.104512
-0.101613
-0.0987836
-0.0960249
-0.0933359
-0.090716
-0.0881645
-0.0856806
-0.0832632
-0.0809114
-0.078624
-0.0763997
-0.0742372
-0.072135
-0.0700918
-0.0681059
-0.0661758
-0.0642999
-0.0624765
-0.0607039
-0.19709
-0.1929
-0.188625
-0.184507
-0.180387
-0.176278
-0.172197
-0.168149
-0.164137
-0.160168
-0.156244
-0.152369
-0.148547
-0.144781
-0.141072
-0.137423
-0.133837
-0.130315
-0.126858
-0.123468
-0.120145
-0.116892
-0.113709
-0.110595
-0.107552
-0.10458
-0.101678
-0.0988475
-0.0960867
-0.0933958
-0.090774
-0.0882207
-0.085735
-0.083316
-0.0809625
-0.0786735
-0.0764476
-0.0742835
-0.0721799
-0.0701352
-0.0681479
-0.0662164
-0.0643391
-0.0625144
-0.0607406
-0.197713
-0.193399
-0.189009
-0.184852
-0.180695
-0.176552
-0.172445
-0.168374
-0.164344
-0.160359
-0.156421
-0.152535
-0.148703
-0.144928
-0.141212
-0.137557
-0.133964
-0.130436
-0.126974
-0.12358
-0.120253
-0.116996
-0.113809
-0.110692
-0.107646
-0.104671
-0.101766
-0.0989326
-0.0961692
-0.0934756
-0.0908514
-0.0882956
-0.0858076
-0.0833863
-0.0810306
-0.0787394
-0.0765114
-0.0743453
-0.0722397
-0.070193
-0.0682038
-0.0662705
-0.0643915
-0.062565
-0.0607895
-0.198486
-0.19402
-0.189486
-0.18528
-0.181078
-0.176894
-0.172753
-0.168655
-0.164602
-0.160597
-0.156643
-0.152743
-0.148898
-0.145112
-0.141386
-0.137723
-0.134123
-0.130588
-0.12712
-0.12372
-0.120388
-0.117126
-0.113935
-0.110813
-0.107763
-0.104784
-0.101876
-0.0990388
-0.0962721
-0.0935753
-0.090948
-0.0883893
-0.0858983
-0.0834742
-0.0811157
-0.0788218
-0.0765912
-0.0744226
-0.0723144
-0.0702653
-0.0682738
-0.0663382
-0.0644569
-0.0626282
-0.0608506
-0.199404
-0.194758
-0.190054
-0.185792
-0.181535
-0.177302
-0.173122
-0.168991
-0.16491
-0.160882
-0.156908
-0.15299
-0.149131
-0.145332
-0.141595
-0.137921
-0.134312
-0.13077
-0.127294
-0.123887
-0.120549
-0.117282
-0.114085
-0.110958
-0.107903
-0.10492
-0.102007
-0.0991661
-0.0963954
-0.0936948
-0.0910637
-0.0885014
-0.086007
-0.0835795
-0.0812177
-0.0789206
-0.0766869
-0.0745152
-0.0724041
-0.0703521
-0.0683577
-0.0664193
-0.0645353
-0.0627041
-0.0609239
-0.200459
-0.195609
-0.190712
-0.186384
-0.182065
-0.177775
-0.173549
-0.16938
-0.165267
-0.161212
-0.157215
-0.153278
-0.149402
-0.145588
-0.141838
-0.138152
-0.134533
-0.13098
-0.127496
-0.124082
-0.120737
-0.117462
-0.114259
-0.111127
-0.108067
-0.105078
-0.10216
-0.0993142
-0.0965389
-0.0938339
-0.0911986
-0.0886321
-0.0861337
-0.0837022
-0.0813366
-0.0790358
-0.0767984
-0.0746231
-0.0725086
-0.0704532
-0.0684555
-0.0665139
-0.0646268
-0.0627925
-0.0610093
-0.201647
-0.19657
-0.191456
-0.187055
-0.182666
-0.178312
-0.174035
-0.169823
-0.165674
-0.161588
-0.157565
-0.153605
-0.149709
-0.145878
-0.142113
-0.138414
-0.134783
-0.13122
-0.127726
-0.124303
-0.12095
-0.117668
-0.114458
-0.111319
-0.108252
-0.105258
-0.102335
-0.0994831
-0.0967026
-0.0939926
-0.0913524
-0.0887812
-0.0862781
-0.0838422
-0.0814723
-0.0791672
-0.0769257
-0.0747464
-0.0726279
-0.0705686
-0.0685672
-0.0666219
-0.0647312
-0.0628935
-0.0611069
-0.202958
-0.197635
-0.192282
-0.187802
-0.183335
-0.178911
-0.174577
-0.170317
-0.166128
-0.162008
-0.157956
-0.153971
-0.150053
-0.146203
-0.142421
-0.138708
-0.135063
-0.131488
-0.127984
-0.12455
-0.121188
-0.117898
-0.11468
-0.111534
-0.108461
-0.105459
-0.10253
-0.0996724
-0.0968861
-0.0941705
-0.0915249
-0.0889485
-0.0864404
-0.0839995
-0.0816247
-0.0793149
-0.0770687
-0.0748849
-0.0727619
-0.0706984
-0.0686927
-0.0667433
-0.0648486
-0.0630069
-0.0612166
-0.204383
-0.198798
-0.193187
-0.188621
-0.184071
-0.179571
-0.175174
-0.170862
-0.166628
-0.162471
-0.158386
-0.154374
-0.150432
-0.146561
-0.142761
-0.139031
-0.135372
-0.131784
-0.128268
-0.124824
-0.121452
-0.118152
-0.114926
-0.111772
-0.108691
-0.105682
-0.102746
-0.0998821
-0.0970895
-0.0943677
-0.0917162
-0.089134
-0.0866202
-0.0841738
-0.0817937
-0.0794787
-0.0772274
-0.0750385
-0.0729107
-0.0708423
-0.068832
-0.0668781
-0.0649789
-0.0631329
-0.0613383
-0.205911
-0.200051
-0.194166
-0.18951
-0.18487
-0.180287
-0.175823
-0.171455
-0.167174
-0.162975
-0.158856
-0.154813
-0.150846
-0.146952
-0.143132
-0.139384
-0.135709
-0.132108
-0.128578
-0.125123
-0.12174
-0.118431
-0.115195
-0.112032
-0.108943
-0.105927
-0.102983
-0.100112
-0.0973123
-0.0945839
-0.0919259
-0.0893374
-0.0868175
-0.0843652
-0.0819792
-0.0796584
-0.0774016
-0.0752073
-0.073074
-0.0710005
-0.068985
-0.0670261
-0.065122
-0.0632712
-0.061472
-0.207531
-0.201387
-0.195213
-0.190462
-0.185728
-0.181058
-0.176523
-0.172095
-0.167762
-0.16352
-0.159363
-0.155288
-0.151293
-0.147374
-0.143533
-0.139766
-0.136074
-0.132457
-0.128914
-0.125446
-0.122052
-0.118732
-0.115486
-0.112314
-0.109216
-0.106192
-0.10324
-0.100361
-0.0975544
-0.0948189
-0.0921539
-0.0895587
-0.0870322
-0.0845734
-0.0821811
-0.0798542
-0.0775912
-0.075391
-0.073252
-0.0711727
-0.0691517
-0.0671873
-0.0652779
-0.0634219
-0.0616176
-0.20923
-0.202796
-0.196322
-0.191474
-0.186642
-0.181881
-0.17727
-0.172779
-0.168392
-0.164103
-0.159906
-0.155797
-0.151771
-0.147827
-0.143962
-0.140175
-0.136466
-0.132832
-0.129275
-0.125793
-0.122387
-0.119056
-0.1158
-0.112618
-0.109511
-0.106477
-0.103517
-0.10063
-0.0978155
-0.0950724
-0.0924001
-0.0897976
-0.087264
-0.0847983
-0.0823992
-0.0800657
-0.0777962
-0.0755896
-0.0734443
-0.0713589
-0.0693319
-0.0673617
-0.0654465
-0.0635849
-0.0617752
-0.210993
-0.204267
-0.197487
-0.19254
-0.187607
-0.182751
-0.178062
-0.173504
-0.16906
-0.164722
-0.160483
-0.156338
-0.15228
-0.148309
-0.14442
-0.140611
-0.136883
-0.133232
-0.12966
-0.126164
-0.122745
-0.119402
-0.116135
-0.112943
-0.109826
-0.106783
-0.103814
-0.100918
-0.0980954
-0.0953442
-0.092664
-0.0900539
-0.0875128
-0.0850397
-0.0826335
-0.0802928
-0.0780165
-0.075803
-0.0736511
-0.0715591
-0.0695256
-0.0675491
-0.0656278
-0.0637602
-0.0619445
-0.212805
-0.20579
-0.198698
-0.193652
-0.188617
-0.183663
-0.178894
-0.174267
-0.169764
-0.165375
-0.161092
-0.156909
-0.152818
-0.148818
-0.144903
-0.141073
-0.137324
-0.133656
-0.130068
-0.126557
-0.123125
-0.11977
-0.116491
-0.113288
-0.110161
-0.107108
-0.10413
-0.101225
-0.0983938
-0.0956341
-0.0929456
-0.0903274
-0.0877784
-0.0852976
-0.0828837
-0.0805355
-0.0782518
-0.0760311
-0.073872
-0.0717731
-0.0697328
-0.0677495
-0.0658217
-0.0639476
-0.0621256
-0.214649
-0.207352
-0.199947
-0.194805
-0.189666
-0.184614
-0.179762
-0.175065
-0.1705
-0.166059
-0.161731
-0.157508
-0.153383
-0.149353
-0.145412
-0.141558
-0.137789
-0.134103
-0.130497
-0.126972
-0.123526
-0.120158
-0.116867
-0.113653
-0.110515
-0.107453
-0.104465
-0.101551
-0.0987102
-0.0959417
-0.0932446
-0.0906179
-0.0880606
-0.0855716
-0.0831497
-0.0807936
-0.0785021
-0.0762737
-0.0741071
-0.0720008
-0.0699532
-0.0679628
-0.066028
-0.0641471
-0.0623184
-0.216508
-0.20894
-0.201225
-0.195989
-0.190748
-0.185597
-0.180662
-0.175893
-0.171267
-0.166772
-0.162397
-0.158133
-0.153973
-0.149912
-0.145944
-0.142066
-0.138276
-0.134571
-0.130948
-0.127408
-0.123947
-0.120566
-0.117263
-0.114038
-0.110889
-0.107816
-0.104818
-0.101895
-0.0990444
-0.0962667
-0.0935606
-0.0909251
-0.0883591
-0.0858615
-0.0834312
-0.0810669
-0.0787672
-0.0765308
-0.0743562
-0.0722421
-0.0701869
-0.0681889
-0.0662467
-0.0643585
-0.0625228
-0.0607377
-0.218364
-0.210538
-0.20252
-0.197196
-0.191854
-0.186605
-0.181589
-0.176748
-0.172058
-0.167509
-0.163086
-0.158781
-0.154586
-0.150493
-0.146497
-0.142596
-0.138784
-0.135059
-0.13142
-0.127863
-0.124388
-0.120994
-0.117678
-0.114441
-0.111281
-0.108198
-0.105189
-0.102256
-0.099396
-0.0966088
-0.0938934
-0.0912487
-0.0886737
-0.0861673
-0.0837281
-0.0813551
-0.0790469
-0.0768021
-0.0746192
-0.0724969
-0.0704336
-0.0684277
-0.0664777
-0.0645819
-0.0627386
-0.0609463
-0.220197
-0.212132
-0.203822
-0.198415
-0.192977
-0.187633
-0.182535
-0.177623
-0.172871
-0.168267
-0.163797
-0.159451
-0.155218
-0.151094
-0.147071
-0.143144
-0.139311
-0.135567
-0.131909
-0.128337
-0.124848
-0.12144
-0.118112
-0.114863
-0.111691
-0.108597
-0.105578
-0.102634
-0.0997645
-0.0969676
-0.0942426
-0.0915885
-0.0890042
-0.0864885
-0.0840403
-0.0816582
-0.0793411
-0.0770874
-0.0748959
-0.072765
-0.0706932
-0.068679
-0.0667208
-0.064817
-0.0629659
-0.0611658
-0.221989
-0.213705
-0.205118
-0.199638
-0.194108
-0.188672
-0.183496
-0.178514
-0.173701
-0.169042
-0.164525
-0.160137
-0.155869
-0.151713
-0.147662
-0.143711
-0.139855
-0.136092
-0.132417
-0.128829
-0.125325
-0.121903
-0.118562
-0.115301
-0.112119
-0.109013
-0.105984
-0.10303
-0.10015
-0.0973427
-0.0946079
-0.0919441
-0.0893502
-0.086825
-0.0843673
-0.0819759
-0.0796495
-0.0773868
-0.0751862
-0.0730463
-0.0709657
-0.0689428
-0.0669761
-0.0650638
-0.0632044
-0.0613963
-0.223718
-0.21524
-0.206395
-0.200851
-0.195237
-0.189715
-0.184463
-0.179415
-0.174542
-0.16983
-0.165267
-0.160838
-0.156534
-0.152346
-0.148268
-0.144293
-0.140416
-0.136633
-0.132941
-0.129337
-0.125818
-0.122383
-0.11903
-0.115757
-0.112563
-0.109446
-0.106406
-0.103441
-0.100551
-0.0977338
-0.094989
-0.0923152
-0.0897114
-0.0871764
-0.0847091
-0.082308
-0.0799721
-0.0776998
-0.0754898
-0.0733407
-0.0712509
-0.0692189
-0.0672432
-0.0653222
-0.0634542
-0.0616375
-0.225366
-0.216718
-0.207639
-0.202043
-0.196353
-0.190751
-0.18543
-0.180318
-0.175388
-0.170626
-0.166018
-0.161549
-0.157211
-0.152993
-0.148887
-0.144888
-0.14099
-0.137189
-0.13348
-0.12986
-0.126327
-0.122879
-0.119513
-0.116228
-0.113022
-0.109895
-0.106844
-0.103869
-0.100968
-0.0981405
-0.0953854
-0.0927015
-0.0900876
-0.0875426
-0.0850652
-0.0826543
-0.0803085
-0.0780264
-0.0758067
-0.0736479
-0.0715486
-0.0695072
-0.0675222
-0.065592
-0.063715
-0.0618895
-0.226911
-0.218122
-0.208835
-0.203201
-0.197445
-0.191771
-0.186387
-0.181217
-0.176234
-0.171424
-0.166773
-0.162268
-0.157896
-0.153649
-0.149517
-0.145496
-0.141577
-0.137757
-0.134032
-0.130397
-0.12685
-0.123389
-0.120011
-0.116714
-0.113497
-0.110359
-0.107297
-0.104311
-0.1014
-0.0985622
-0.0957968
-0.0931026
-0.0904784
-0.0879232
-0.0854356
-0.0830145
-0.0806585
-0.0783663
-0.0761365
-0.0739678
-0.0718586
-0.0698074
-0.0678128
-0.0658731
-0.0639867
-0.062152
-0.228333
-0.219432
-0.209969
-0.204312
-0.1985
-0.192766
-0.187326
-0.182104
-0.177072
-0.172219
-0.167529
-0.162988
-0.158586
-0.154311
-0.150156
-0.146112
-0.142174
-0.138337
-0.134596
-0.130947
-0.127387
-0.123913
-0.120523
-0.117214
-0.113986
-0.110837
-0.107765
-0.104768
-0.101847
-0.0989985
-0.0962227
-0.0935181
-0.0908835
-0.0883178
-0.0858198
-0.0833883
-0.0810219
-0.0787193
-0.0764792
-0.0743002
-0.0721808
-0.0701196
-0.0681149
-0.0661653
-0.0642692
-0.062425
-0.229613
-0.22063
-0.211023
-0.20536
-0.199507
-0.193723
-0.188237
-0.18297
-0.177896
-0.173005
-0.168279
-0.163707
-0.159277
-0.154977
-0.150799
-0.146736
-0.14278
-0.138927
-0.13517
-0.131508
-0.127935
-0.124449
-0.121047
-0.117728
-0.114489
-0.111329
-0.108246
-0.10524
-0.102308
-0.099449
-0.0966627
-0.0939476
-0.0913025
-0.0887262
-0.0862176
-0.0837754
-0.0813984
-0.0790852
-0.0768345
-0.0746449
-0.072515
-0.0704434
-0.0684284
-0.0664686
-0.0645624
-0.0627082
-0.23073
-0.221695
-0.211983
-0.206331
-0.200451
-0.19463
-0.18911
-0.183807
-0.178698
-0.173774
-0.169019
-0.16442
-0.159964
-0.155642
-0.151445
-0.147363
-0.143392
-0.139523
-0.135754
-0.132078
-0.128493
-0.124996
-0.121584
-0.118254
-0.115005
-0.111834
-0.108741
-0.105724
-0.102782
-0.0999131
-0.0971163
-0.0943907
-0.091735
-0.089148
-0.0866287
-0.0841756
-0.0817878
-0.0794637
-0.0772022
-0.0750017
-0.0728611
-0.0707787
-0.0687531
-0.0667827
-0.0648661
-0.0630017
-0.231667
-0.222608
-0.21283
-0.207209
-0.201318
-0.195476
-0.189933
-0.184605
-0.179471
-0.174522
-0.169743
-0.165121
-0.160645
-0.156305
-0.15209
-0.147993
-0.144007
-0.140126
-0.136344
-0.132657
-0.129061
-0.125554
-0.122131
-0.118791
-0.115532
-0.112352
-0.109249
-0.106222
-0.103269
-0.10039
-0.0975831
-0.094847
-0.0921806
-0.0895829
-0.0870526
-0.0845886
-0.0821897
-0.0798546
-0.0775819
-0.0753704
-0.0732187
-0.0711253
-0.0690888
-0.0671076
-0.0651803
-0.0633052
-0.0614809
-0.232404
-0.223349
-0.213548
-0.207977
-0.202093
-0.196247
-0.190696
-0.185355
-0.180205
-0.175239
-0.170444
-0.165806
-0.161315
-0.156959
-0.152731
-0.148622
-0.144624
-0.140732
-0.136939
-0.133243
-0.129637
-0.12612
-0.122688
-0.119339
-0.116071
-0.112881
-0.109768
-0.106732
-0.103769
-0.10088
-0.0980626
-0.0953159
-0.0926389
-0.0900304
-0.0874891
-0.0850141
-0.082604
-0.0802576
-0.0779736
-0.0757508
-0.0735877
-0.071483
-0.0694353
-0.067443
-0.0655046
-0.0636186
-0.0617835
-0.232922
-0.223897
-0.214117
-0.208618
-0.202761
-0.196929
-0.191386
-0.186046
-0.180892
-0.17592
-0.171116
-0.166469
-0.161968
-0.157603
-0.153366
-0.149247
-0.14524
-0.141339
-0.137538
-0.133833
-0.130219
-0.126694
-0.123254
-0.119896
-0.116619
-0.113421
-0.110299
-0.107253
-0.104281
-0.101382
-0.0985542
-0.0957971
-0.0931095
-0.0904901
-0.0879379
-0.0854517
-0.0830302
-0.0806724
-0.078377
-0.0761426
-0.073968
-0.0718517
-0.0697925
-0.0677887
-0.065839
-0.0639418
-0.0620956
-0.233203
-0.224234
-0.21452
-0.209112
-0.203304
-0.197508
-0.191991
-0.186667
-0.181523
-0.176556
-0.171753
-0.167105
-0.162601
-0.158232
-0.153989
-0.149865
-0.145853
-0.141946
-0.138139
-0.134427
-0.130807
-0.127274
-0.123827
-0.120462
-0.117177
-0.11397
-0.11084
-0.107785
-0.104804
-0.101895
-0.0990573
-0.0962901
-0.0935919
-0.0909617
-0.0883985
-0.085901
-0.0834681
-0.0810988
-0.0787917
-0.0765456
-0.0743592
-0.0722311
-0.0701601
-0.0681446
-0.0661833
-0.0642746
-0.062417
-0.233226
-0.224337
-0.214735
-0.209441
-0.203705
-0.197968
-0.192497
-0.187208
-0.182089
-0.177139
-0.172348
-0.167708
-0.163209
-0.158842
-0.154599
-0.150474
-0.14646
-0.142549
-0.138738
-0.135022
-0.131397
-0.127859
-0.124406
-0.121034
-0.117742
-0.114528
-0.11139
-0.108327
-0.105337
-0.102419
-0.0995715
-0.0967942
-0.0940856
-0.0914447
-0.0888704
-0.0863617
-0.0839174
-0.0815363
-0.0792174
-0.0769594
-0.0747611
-0.072621
-0.070538
-0.0685105
-0.0665373
-0.0646168
-0.0627475
-0.232966
-0.224183
-0.214742
-0.209584
-0.203946
-0.198295
-0.192893
-0.187657
-0.18258
-0.177662
-0.172896
-0.168273
-0.163787
-0.159429
-0.155192
-0.151071
-0.147058
-0.143148
-0.139336
-0.135618
-0.13199
-0.128448
-0.12499
-0.121613
-0.118315
-0.115095
-0.111949
-0.108878
-0.10588
-0.102953
-0.100096
-0.0973092
-0.0945903
-0.0919388
-0.0893536
-0.0868336
-0.0843777
-0.081985
-0.0796541
-0.0773841
-0.0751735
-0.0730213
-0.070926
-0.0688864
-0.0669009
-0.0649683
-0.063087
-0.232393
-0.223755
-0.214522
-0.209519
-0.20401
-0.198473
-0.193164
-0.188004
-0.182987
-0.178117
-0.173388
-0.168794
-0.16433
-0.159989
-0.155765
-0.151652
-0.147645
-0.143739
-0.13993
-0.136212
-0.132583
-0.129039
-0.125578
-0.122197
-0.118895
-0.115668
-0.112517
-0.109438
-0.106432
-0.103497
-0.100631
-0.0978347
-0.0951059
-0.0924439
-0.0898478
-0.0873165
-0.0848491
-0.0824446
-0.0801017
-0.0778195
-0.0755966
-0.073432
-0.0713242
-0.0692721
-0.0672742
-0.0653293
-0.0634357
-0.231481
-0.223032
-0.214044
-0.209214
-0.203867
-0.198477
-0.19329
-0.18823
-0.183295
-0.178491
-0.173814
-0.169261
-0.164829
-0.160514
-0.156309
-0.152212
-0.148216
-0.144318
-0.140514
-0.1368
-0.133173
-0.129629
-0.126167
-0.122784
-0.119478
-0.116247
-0.11309
-0.110005
-0.106992
-0.104049
-0.101175
-0.0983691
-0.0956306
-0.0929583
-0.0903515
-0.0878091
-0.0853303
-0.0829139
-0.080559
-0.0782645
-0.0760292
-0.073852
-0.0717317
-0.0696669
-0.0676564
-0.0656988
-0.0637927
-0.0619367
-0.230129
-0.221941
-0.21325
-0.208623
-0.203484
-0.198281
-0.193248
-0.188316
-0.183486
-0.178767
-0.174159
-0.169661
-0.165273
-0.160992
-0.156816
-0.15274
-0.148761
-0.144876
-0.141082
-0.137375
-0.133752
-0.130212
-0.12675
-0.123367
-0.120059
-0.116825
-0.113663
-0.110574
-0.107554
-0.104604
-0.101722
-0.0989075
-0.0961597
-0.0934776
-0.0908604
-0.0883072
-0.0858171
-0.0833891
-0.0810222
-0.0787155
-0.0764678
-0.0742781
-0.0721451
-0.0700676
-0.0680443
-0.066074
-0.0641553
-0.0622867
-0.228048
-0.220412
-0.212154
-0.207789
-0.202915
-0.197944
-0.193095
-0.188314
-0.183609
-0.178991
-0.174464
-0.170032
-0.165696
-0.161457
-0.157314
-0.153264
-0.149306
-0.145437
-0.141654
-0.137956
-0.134339
-0.130803
-0.127343
-0.12396
-0.12065
-0.117413
-0.114248
-0.111153
-0.108128
-0.10517
-0.102281
-0.0994575
-0.0967004
-0.0940083
-0.0913806
-0.0888164
-0.0863148
-0.0838749
-0.0814959
-0.0791768
-0.0769165
-0.074714
-0.072568
-0.0704776
-0.0684413
-0.0664581
-0.0645264
-0.062645
-0.225426
-0.218771
-0.21093
-0.20681
-0.202236
-0.197532
-0.192898
-0.188293
-0.183732
-0.17923
-0.174797
-0.170441
-0.166165
-0.161973
-0.157867
-0.153847
-0.149911
-0.14606
-0.14229
-0.138601
-0.134991
-0.131458
-0.128
-0.124616
-0.121304
-0.118064
-0.114894
-0.111793
-0.10876
-0.105794
-0.102896
-0.100063
-0.097295
-0.0945918
-0.0919522
-0.0893756
-0.0868612
-0.0844081
-0.0820156
-0.0796826
-0.0774082
-0.0751914
-0.0730311
-0.0709262
-0.0688755
-0.0668777
-0.0649317
-0.063036
-0.223643
-0.216733
-0.208788
-0.204835
-0.200638
-0.196311
-0.191997
-0.187663
-0.183328
-0.179014
-0.174737
-0.170509
-0.16634
-0.162236
-0.158203
-0.154243
-0.150357
-0.146547
-0.142812
-0.139151
-0.135563
-0.132048
-0.128605
-0.125232
-0.121929
-0.118695
-0.115528
-0.112428
-0.109395
-0.106427
-0.103525
-0.100687
-0.0979123
-0.0952011
-0.0925526
-0.089966
-0.0874407
-0.084976
-0.082571
-0.080225
-0.0779371
-0.0757063
-0.0735316
-0.071412
-0.0693464
-0.0673336
-0.0653723
-0.0634614
-0.216009
-0.211523
-0.204141
-0.200801
-0.197163
-0.193366
-0.189498
-0.18554
-0.181529
-0.177491
-0.173451
-0.169427
-0.165434
-0.161483
-0.157581
-0.153736
-0.149951
-0.146228
-0.14257
-0.138977
-0.13545
-0.131988
-0.128591
-0.12526
-0.121994
-0.118791
-0.115653
-0.112579
-0.109567
-0.106619
-0.103732
-0.100908
-0.0981453
-0.0954439
-0.0928032
-0.0902227
-0.087702
-0.0852405
-0.0828374
-0.0804921
-0.0782039
-0.0759718
-0.073795
-0.0716726
-0.0696034
-0.0675865
-0.0656207
-0.0637048
-0.18488
-0.210565
-0.205143
-0.202282
-0.198599
-0.194685
-0.190655
-0.186532
-0.182364
-0.178184
-0.174015
-0.169876
-0.165781
-0.16174
-0.15776
-0.153845
-0.149997
-0.14622
-0.142513
-0.138877
-0.135311
-0.131815
-0.128389
-0.125032
-0.121742
-0.11852
-0.115365
-0.112276
-0.109252
-0.106294
-0.1034
-0.10057
-0.0978038
-0.0951003
-0.0924592
-0.0898799
-0.0873618
-0.084904
-0.082506
-0.0801669
-0.0778858
-0.0756618
-0.0734939
-0.0713811
-0.0693222
-0.0673162
-0.0653618
-0.0634578
-0.173805
-0.206847
-0.20203
-0.199996
-0.196721
-0.193073
-0.189237
-0.18527
-0.181234
-0.177166
-0.173096
-0.169044
-0.165027
-0.161056
-0.157137
-0.153278
-0.149482
-0.14575
-0.142086
-0.138488
-0.134957
-0.131494
-0.128097
-0.124767
-0.121503
-0.118304
-0.115171
-0.112101
-0.109096
-0.106155
-0.103277
-0.100461
-0.0977084
-0.0950174
-0.0923878
-0.0898191
-0.0873107
-0.084862
-0.0824722
-0.0801407
-0.0778666
-0.075649
-0.073487
-0.0713796
-0.0693257
-0.0673241
-0.0653738
-0.0634735
-0.170636
-0.203108
-0.198349
-0.197023
-0.194207
-0.19089
-0.187319
-0.183571
-0.179723
-0.175818
-0.171892
-0.167967
-0.164063
-0.160192
-0.156364
-0.152587
-0.148864
-0.145199
-0.141594
-0.138051
-0.134571
-0.131154
-0.127799
-0.124507
-0.121279
-0.118112
-0.115008
-0.111966
-0.108986
-0.106068
-0.103211
-0.100415
-0.097679
-0.0950037
-0.0923884
-0.0898325
-0.0873355
-0.084897
-0.0825163
-0.0801927
-0.0779255
-0.0757138
-0.0735568
-0.0714536
-0.0694032
-0.0674044
-0.0654561
-0.0635574
-0.16901
-0.199873
-0.195261
-0.194365
-0.191914
-0.18888
-0.185543
-0.181991
-0.178311
-0.174554
-0.170757
-0.166948
-0.163147
-0.159369
-0.155624
-0.151922
-0.148267
-0.144664
-0.141116
-0.137624
-0.134191
-0.130816
-0.127501
-0.124246
-0.121051
-0.117915
-0.11484
-0.111824
-0.108868
-0.105971
-0.103134
-0.100357
-0.0976379
-0.094978
-0.0923766
-0.0898333
-0.0873477
-0.0849194
-0.0825477
-0.0802322
-0.077972
-0.0757665
-0.0736148
-0.0715161
-0.0694694
-0.0674737
-0.0655279
-0.063631
-0.0617816
-0.167953
-0.196854
-0.192538
-0.191873
-0.189719
-0.18693
-0.183805
-0.180435
-0.176914
-0.173298
-0.169626
-0.165929
-0.162228
-0.15854
-0.154877
-0.151248
-0.14766
-0.144118
-0.140626
-0.137185
-0.133798
-0.130466
-0.127191
-0.123972
-0.12081
-0.117705
-0.114658
-0.111668
-0.108736
-0.105862
-0.103045
-0.100286
-0.0975842
-0.0949399
-0.0923526
-0.0898222
-0.0873483
-0.0849304
-0.0825681
-0.0802609
-0.0780081
-0.0758091
-0.073663
-0.0715692
-0.0695266
-0.0675344
-0.0655915
-0.0636969
-0.0618493
-0.16739
-0.193947
-0.189987
-0.189423
-0.187519
-0.184952
-0.182027
-0.178836
-0.175474
-0.171998
-0.168453
-0.16487
-0.161272
-0.157676
-0.154097
-0.150545
-0.147026
-0.143547
-0.140112
-0.136724
-0.133386
-0.130099
-0.126864
-0.123683
-0.120556
-0.117483
-0.114465
-0.111503
-0.108596
-0.105745
-0.102949
-0.10021
-0.0975257
-0.0948976
-0.0923251
-0.0898081
-0.0873463
-0.0849393
-0.0825868
-0.0802884
-0.0780433
-0.0758511
-0.073711
-0.0716223
-0.0695841
-0.0675956
-0.0656557
-0.0637635
-0.0619178
-0.167138
-0.191138
-0.187562
-0.187012
-0.185317
-0.182949
-0.180212
-0.177194
-0.173988
-0.170654
-0.167237
-0.163769
-0.160276
-0.156776
-0.153284
-0.14981
-0.146363
-0.14295
-0.139575
-0.136242
-0.132955
-0.129714
-0.126522
-0.12338
-0.120289
-0.11725
-0.114263
-0.111329
-0.108449
-0.105621
-0.102848
-0.100129
-0.0974634
-0.0948523
-0.0922953
-0.0897923
-0.0873432
-0.0849477
-0.0826054
-0.0803161
-0.0780791
-0.075894
-0.0737602
-0.0716768
-0.0696432
-0.0676585
-0.0657218
-0.0638322
-0.0619885
-0.167003
-0.188415
-0.185239
-0.184647
-0.183123
-0.180931
-0.17837
-0.175518
-0.172465
-0.169272
-0.165983
-0.162632
-0.159245
-0.155842
-0.152439
-0.149046
-0.145673
-0.142328
-0.139015
-0.135739
-0.132504
-0.129312
-0.126164
-0.123063
-0.12001
-0.117006
-0.114051
-0.111147
-0.108293
-0.105491
-0.102741
-0.100043
-0.0973967
-0.0948033
-0.0922624
-0.089774
-0.0873381
-0.0849546
-0.082623
-0.0803432
-0.0781147
-0.0759371
-0.0738097
-0.0717319
-0.0697031
-0.0677225
-0.0657891
-0.0639022
-0.0620606
-0.166856
-0.185763
-0.182988
-0.182324
-0.180937
-0.178902
-0.176503
-0.17381
-0.170907
-0.167852
-0.164691
-0.161458
-0.158179
-0.154875
-0.151562
-0.148252
-0.144956
-0.14168
-0.138431
-0.135215
-0.132034
-0.128891
-0.12579
-0.122731
-0.119717
-0.116749
-0.113828
-0.110954
-0.108129
-0.105353
-0.102627
-0.0999507
-0.0973249
-0.09475
-0.0922259
-0.0897528
-0.0873307
-0.0849595
-0.0826392
-0.0803693
-0.0781497
-0.0759798
-0.0738592
-0.0717874
-0.0697636
-0.0677872
-0.0658574
-0.0639733
-0.062134
-0.166621
-0.183172
-0.180782
-0.180034
-0.178759
-0.176863
-0.174614
-0.172072
-0.169314
-0.166397
-0.163363
-0.160248
-0.157078
-0.153875
-0.150654
-0.147429
-0.14421
-0.141006
-0.137824
-0.134668
-0.131543
-0.128452
-0.125398
-0.122384
-0.119411
-0.11648
-0.113593
-0.110752
-0.107956
-0.105207
-0.102506
-0.0998527
-0.097248
-0.0946922
-0.0921856
-0.0897284
-0.0873207
-0.0849625
-0.0826538
-0.0803943
-0.0781839
-0.0760222
-0.0739088
-0.0718431
-0.0698246
-0.0678527
-0.0659266
-0.0640455
-0.0622085
-0.166252
-0.180631
-0.178599
-0.17777
-0.176584
-0.174813
-0.172703
-0.170305
-0.167688
-0.164905
-0.161999
-0.159002
-0.155942
-0.15284
-0.149713
-0.146575
-0.143436
-0.140306
-0.137192
-0.134098
-0.131031
-0.127994
-0.12499
-0.122021
-0.11909
-0.116198
-0.113347
-0.110539
-0.107774
-0.105053
-0.102378
-0.0997485
-0.0971656
-0.0946298
-0.184145
-0.186818
-0.18973
-0.192181
-0.208636
-0.185127
-0.189113
-0.193886
-0.197769
-0.221099
-0.185736
-0.189985
-0.195102
-0.198685
-0.224082
-0.184663
-0.188898
-0.193972
-0.197222
-0.222703
-0.183308
-0.187586
-0.192657
-0.195838
-0.220423
-0.181952
-0.186262
-0.191275
-0.194484
-0.217549
-0.184734
-0.189612
-0.192903
-0.214177
-0.187702
-0.191125
-0.210547
-0.189194
-0.206808
-0.203026
)
;

boundaryField
{
    inlet
    {
        type            zeroGradient;
    }
    outlet
    {
        type            fixedValue;
        value           nonuniform 0();
    }
    cylinder
    {
        type            zeroGradient;
    }
    top
    {
        type            symmetryPlane;
    }
    bottom
    {
        type            symmetryPlane;
    }
    defaultFaces
    {
        type            empty;
    }
    procBoundary10to6
    {
        type            processor;
        value           nonuniform List<scalar> 
54
(
-0.27981
-0.266954
-0.254527
-0.242558
-0.231329
-0.220466
-0.211212
-0.201053
-0.196146
-0.192145
-0.188047
-0.183988
-0.179925
-0.175866
-0.171825
-0.16781
-0.163827
-0.159881
-0.155977
-0.152119
-0.148312
-0.144559
-0.144559
-0.140861
-0.137223
-0.133646
-0.130132
-0.126682
-0.123299
-0.119983
-0.116736
-0.113558
-0.110449
-0.107411
-0.104444
-0.101547
-0.0987198
-0.0959631
-0.093276
-0.090658
-0.0881083
-0.0856261
-0.0832105
-0.0808604
-0.0785746
-0.0763518
-0.0741908
-0.0720902
-0.0700484
-0.0680639
-0.0661352
-0.0642607
-0.0624386
-0.0606673
)
;
    }
    procBoundary10to9
    {
        type            processor;
        value           nonuniform List<scalar> 
58
(
-0.29302
-0.293131
-0.293298
-0.293519
-0.293793
-0.29412
-0.294498
-0.294925
-0.295399
-0.282479
-0.282479
-0.282988
-0.283534
-0.284115
-0.284728
-0.285371
-0.286042
-0.286737
-0.287455
-0.288193
-0.274965
-0.274965
-0.275635
-0.276313
-0.276997
-0.277682
-0.278367
-0.264815
-0.264815
-0.265375
-0.265923
-0.266452
-0.266961
-0.252274
-0.252274
-0.252627
-0.252958
-0.253264
-0.239481
-0.239481
-0.23953
-0.239549
-0.222496
-0.222496
-0.223429
-0.224374
-0.212614
-0.212614
-0.21111
-0.214906
-0.214906
-0.21533
-0.18173
-0.181736
-0.182122
-0.181041
-0.179633
-0.178223
)
;
    }
    procBoundary10to11
    {
        type            processor;
        value           nonuniform List<scalar> 
53
(
-0.0589451
-0.0589569
-0.0589805
-0.0590159
-0.0590632
-0.0591222
-0.059193
-0.0592756
-0.0593698
-0.0594758
-0.0595934
-0.0597226
-0.0598633
-0.0600155
-0.0601791
-0.0603541
-0.0605403
-0.0605403
-0.0590017
-0.0592031
-0.0594151
-0.0596376
-0.0598706
-0.0601138
-0.0603673
-0.0606309
-0.0609044
-0.0611878
-0.0611878
-0.0597056
-0.0599976
-0.0602988
-0.0606089
-0.0609279
-0.0612556
-0.0615921
-0.0615921
-0.0601292
-0.0604669
-0.0608125
-0.0611893
-0.0615994
-0.0618375
-0.0616027
-0.0616218
-0.0617066
-0.0617066
-0.0599787
-0.0600476
-0.0601175
-0.0601896