/*--------------------------------*- C++ -*----------------------------------*\
  =========                 |
  \\      /  F ield         | OpenFOAM: The Open Source CFD Toolbox
   \\    /   O peration     | Website:  https://openfoam.org
    \\  /    A nd           | Version:  7
     \\/     M anipulation  |
\*---------------------------------------------------------------------------*/
FoamFile
{
    version     2.0;
    format      ascii;
    class       surfaceScalarField;
    location    "15";
    object      phi;
}
// * * * * * * * * * * * * * * * * * * * * * * * * * * * * * * * * * * * * * //

dimensions      [0 3 -1 0 0 0 0];

internalField   nonuniform List<scalar> 
5137
(
0.000246042
-0.000106469
0.000307247
-0.000122024
0.000376581
-0.000138243
0.000454275
-0.000154919
0.000540322
-0.000171578
0.000634469
-0.000187724
0.000735578
-0.000201594
-0.000214252
0.000843044
0.000250586
-0.000160576
0.000312561
-0.000183999
0.000382744
-0.000208426
0.000461372
-0.000233547
0.000548448
-0.000258653
0.000643727
-0.000283003
0.000746082
-0.000303949
-0.000323074
0.000854903
0.000257381
-0.000215726
0.000320507
-0.000247125
0.000391958
-0.000279876
0.00047198
-0.000313569
0.000560589
-0.000347262
0.000657557
-0.000379971
0.00076177
-0.000408161
-0.000433914
0.00087261
0.000266403
-0.000272257
0.000331055
-0.000311777
0.000404184
-0.000353006
0.000486052
-0.000395437
0.000576691
-0.000437901
0.000675894
-0.000479174
0.000782562
-0.00051483
-0.000547423
0.000896071
0.00027762
-0.000330505
0.000344165
-0.000378322
0.000419376
-0.000428216
0.00050353
-0.000479592
0.000596683
-0.000531053
0.00069865
-0.000581142
0.000808356
-0.000624535
-0.000664228
0.000925161
0.000290992
-0.000390794
0.000359787
-0.000447117
0.000437471
-0.000505901
0.000524341
-0.000566462
0.000620474
-0.000627187
0.000725718
-0.000686385
0.000839019
-0.000737837
-0.000784932
0.000959723
0.000306469
-0.000453443
0.000377862
-0.00051851
0.000458398
-0.000586437
0.000548395
-0.000656458
0.000647958
-0.000726749
0.000756966
-0.000795394
0.000874398
-0.000855268
-0.000910108
0.000999574
0.000323997
-0.000518757
0.000398322
-0.000592835
0.000482074
-0.000670188
0.000575591
-0.000749976
0.00067901
-0.000830169
0.000792246
-0.000908629
0.000914312
-0.000977334
-0.00104029
0.0010445
0.000343513
0.00042109
-0.000670411
0.000508402
-0.000757501
0.000605813
-0.000847387
0.00071349
-0.000937846
0.000831387
-0.00102653
0.000958557
-0.0011045
-0.00117599
0.00109425
0.000446078
-0.000751543
0.000537277
-0.000848701
0.000638932
-0.000949041
0.000751242
-0.00105016
0.0008742
-0.00114948
0.00100691
-0.00123721
-0.00131764
0.00114856
0.000473191
-0.000836515
0.000568584
-0.000944093
0.000674806
-0.00105526
0.000792092
-0.00116744
0.000920476
-0.00127787
0.00105911
-0.00137584
-0.00146567
0.00120713
0.000502327
-0.000925595
0.000602195
-0.00104396
0.000713281
-0.00116635
0.000835854
-0.00129002
0.00096999
-0.001412
0.00111489
-0.00152075
-0.00162042
0.00126965
0.000533374
-0.00101903
0.000637974
-0.00114856
0.000754191
-0.00128257
0.000882328
-0.00141815
0.0010225
-0.00155217
0.00117397
-0.00167222
-0.0017822
0.00133575
0.000566214
-0.00111703
0.000675776
-0.00125812
0.00079736
-0.00140415
0.000931298
-0.00155209
0.00107774
-0.00169862
0.00123603
-0.0018305
-0.00195125
0.00140508
0.00060072
-0.00121982
0.000715448
-0.00137285
0.000842601
-0.0015313
0.000982539
-0.00169203
0.00113545
-0.00185153
0.00130074
-0.0019958
-0.00212775
0.00147725
0.00063676
-0.00132755
0.000756828
-0.00149292
0.000889716
-0.00166419
0.00103581
-0.00183813
0.00119533
-0.00201105
0.00136777
-0.00216823
-0.00231183
0.00155185
0.000674196
-0.00144038
0.000799745
-0.00161847
0.000938501
-0.00180295
0.00109087
-0.0019905
0.0012571
-0.00217728
0.00143674
-0.00234788
-0.00250354
0.00162845
0.000712881
-0.00155844
0.000844024
-0.00174961
0.000988742
-0.00194766
0.00114745
-0.00214921
0.00132042
-0.00235025
0.00150731
-0.00253476
-0.00270287
0.00170664
0.000752668
0.000889483
-0.00188642
0.00104022
-0.0020984
0.0012053
-0.00231429
0.001385
-0.00252996
0.00157908
-0.00272884
-0.00290974
0.00178595
0.000935934
-0.00202896
0.0010927
-0.00225517
0.00126414
-0.00248572
0.00145051
-0.00271633
0.00165168
-0.00293001
-0.00312401
0.00186595
0.000983184
-0.00217722
0.00114597
-0.00241795
0.00132368
-0.00266344
0.00151661
-0.00290926
0.00172471
-0.0031381
-0.00334547
0.00194617
0.00103104
-0.00233119
0.00119977
-0.00258668
0.00138367
-0.00284734
0.00158298
-0.00310857
0.00179778
-0.0033529
-0.00357384
0.00202615
0.00107929
-0.00249081
0.00125388
-0.00276127
0.0014438
-0.00303726
0.00164928
-0.00331405
0.0018705
-0.00357412
-0.00380878
0.00210545
0.00112775
-0.002656
0.00130805
-0.00294156
0.0015038
-0.00323301
0.00171517
-0.00352543
0.00194249
-0.00380144
-0.00404991
0.00218361
0.0011762
0.00136204
-0.0031274
0.00156338
-0.00343436
0.00178034
-0.00374239
0.00201337
-0.00403447
-0.00429674
0.00226021
0.00141562
-0.00331857
0.00162228
-0.00364101
0.00184445
-0.00396457
0.00208276
-0.00427278
-0.00454879
0.0023348
0.00146854
-0.00351481
0.0016802
-0.00385267
0.0019072
-0.00419157
0.00215031
-0.00451589
-0.00480547
0.00240699
0.00152057
-0.00371587
0.00173688
-0.00406899
0.00196827
-0.00442296
0.00221568
-0.0047633
-0.00506617
0.00247638
0.00157147
-0.00392142
0.00179207
-0.00428959
0.00202738
-0.00465828
0.00227855
-0.00501446
-0.00533023
0.00254261
0.00162102
0.0018455
-0.00451406
0.00208426
-0.00489703
0.00233862
-0.00526883
-0.00559695
0.00260534
0.00189694
-0.004742
0.00213864
-0.00513873
0.00239563
-0.00552582
-0.00586556
0.00266424
0.00194615
-0.00497296
0.00219029
-0.00538287
0.00244932
-0.00578486
-0.00613528
0.00271905
0.00199292
-0.00520648
0.002239
-0.00562894
0.00249951
-0.00604537
-0.00640528
0.0027695
0.00203704
0.00228458
-0.00587649
0.00254602
-0.0063068
-0.00667467
0.00281541
0.00232689
-0.00612508
0.00258873
-0.00656864
-0.00694258
0.00285664
0.00236578
-0.00637435
0.00262758
-0.00683044
-0.0072082
0.00289319
0.00240116
0.00266249
-0.00709176
-0.00747084
0.00292513
0.00269352
-0.00735228
-0.00773083
0.00295351
0.00272193
-0.00761311
-0.00798941
0.00298051
0.00274963
-0.00830905
0.00306928
-0.0086102
0.00306521
0.00305182
0.00125801
-2.69843e-05
0.00128501
-2.70018e-05
0.00131204
-2.70247e-05
0.00133909
-2.70497e-05
0.00136616
-2.70739e-05
0.00139326
-2.70949e-05
0.00142037
-2.71104e-05
0.00144749
-2.71188e-05
0.00147461
-2.71185e-05
0.00150171
-2.71082e-05
0.0015288
-2.7087e-05
0.00155585
-2.70541e-05
0.00158286
-2.70089e-05
0.00160981
-2.6951e-05
0.0016367
-2.68802e-05
0.00166349
-2.67963e-05
0.00169019
-2.66994e-05
0.00171678
-2.65896e-05
0.00174325
-2.6467e-05
0.00176958
-2.63321e-05
0.00179577
-2.6185e-05
0.00182179
-2.60264e-05
0.00184765
-2.58565e-05
0.00187333
-2.56759e-05
0.00189881
-2.54852e-05
0.0019241
-2.52849e-05
0.00194917
-2.50756e-05
0.00197403
-2.48579e-05
0.00199866
-2.46325e-05
0.00202306
-2.44e-05
-2.41612e-05
0.00087428
-6.26381e-05
0.000904457
-6.05063e-05
0.000933839
-5.89025e-05
0.000962581
-5.76127e-05
0.000990819
-5.6596e-05
0.00101866
-5.5807e-05
0.00104621
-5.52011e-05
0.00107353
-5.47442e-05
0.00110068
-5.44086e-05
0.00112772
-5.41713e-05
0.00115468
-5.40129e-05
0.00118159
-5.39175e-05
0.00120848
-5.38711e-05
0.00123536
-5.38621e-05
0.00126226
-5.38802e-05
0.00128918
-5.39167e-05
0.00131611
-5.39639e-05
0.00134308
-5.40152e-05
0.00137007
-5.40648e-05
0.00139708
-5.41078e-05
0.00142411
-5.41399e-05
0.00145115
-5.41576e-05
0.00147819
-5.41578e-05
0.00150522
-5.41381e-05
0.00153223
-5.40965e-05
0.00155921
-5.40314e-05
0.00158614
-5.39418e-05
0.00161302
-5.38268e-05
0.00163982
-5.36859e-05
0.00166655
-5.3519e-05
0.00169317
-5.3326e-05
0.00171969
-5.31072e-05
0.00174609
-5.28631e-05
0.00177235
-5.25941e-05
0.00179846
-5.2301e-05
0.00182442
-5.19846e-05
0.00185021
-5.16458e-05
0.00187582
-5.12857e-05
0.00190124
-5.09053e-05
0.00192646
-5.05058e-05
0.00195147
-5.00883e-05
0.00197627
-4.9654e-05
0.00200084
-4.92044e-05
0.00202518
-4.87406e-05
-4.82639e-05
0.000885805
-9.35399e-05
0.00091568
-9.0381e-05
0.000944786
-8.80086e-05
0.000973271
-8.60977e-05
0.00100127
-8.45915e-05
0.00102888
-8.34233e-05
0.00105621
-8.25271e-05
0.00108332
-8.18522e-05
0.00111027
-8.13577e-05
0.0011371
-8.10093e-05
0.00116387
-8.07786e-05
0.00119059
-8.06414e-05
0.0012173
-8.05771e-05
0.00124401
-8.05684e-05
0.00127073
-8.05998e-05
0.00129747
-8.06584e-05
0.00132424
-8.07327e-05
0.00135103
-8.08128e-05
0.00137786
-8.08901e-05
0.00140471
-8.09572e-05
0.00143158
-8.10078e-05
0.00145845
-8.10366e-05
0.00148534
-8.1039e-05
0.00151221
-8.10115e-05
0.00153906
-8.09511e-05
0.00156589
-8.08555e-05
0.00159267
-8.0723e-05
0.00161939
-8.05524e-05
0.00164605
-8.03431e-05
0.00167263
-8.00947e-05
0.00169911
-7.98073e-05
0.00172548
-7.94813e-05
0.00175174
-7.91172e-05
0.00177786
-7.8716e-05
0.00180384
-7.82787e-05
0.00182966
-7.78065e-05
0.00185531
-7.73008e-05
0.00188079
-7.67632e-05
0.00190608
-7.61951e-05
0.00193117
-7.55985e-05
0.00195606
-7.49749e-05
0.00198073
-7.43263e-05
0.00200518
-7.36546e-05
0.0020294
-7.29617e-05
-7.22496e-05
0.000903013
-0.000123943
0.000932435
-0.000119803
0.000961128
-0.000116702
0.000989229
-0.000114198
0.00101686
-0.000112225
0.00104413
-0.000110696
0.00107113
-0.000109524
0.00109792
-0.000108644
0.00112457
-0.000108002
0.00115111
-0.000107552
0.00117759
-0.000107257
0.00120403
-0.000107085
0.00123046
-0.000107009
0.0012569
-0.000107006
0.00128336
-0.000107056
0.00130984
-0.000107141
0.00133635
-0.000107247
0.0013629
-0.00010736
0.00138948
-0.000107468
0.00141608
-0.000107562
0.00144271
-0.000107634
0.00146935
-0.000107677
0.001496
-0.000107684
0.00152264
-0.000107651
0.00154926
-0.000107574
0.00157585
-0.000107451
0.00160241
-0.000107278
0.00162891
-0.000107054
0.00165535
-0.000106778
0.0016817
-0.000106451
0.00170797
-0.000106072
0.00173413
-0.000105641
0.00176017
-0.00010516
0.00178608
-0.000104629
0.00181185
-0.00010405
0.00183747
-0.000103425
0.00186293
-0.000102755
0.00188821
-0.000102043
0.0019133
-0.000101291
0.0019382
-0.0001005
0.0019629
-9.96735e-05
0.00198739
-9.88138e-05
0.00201166
-9.79233e-05
0.0020357
-9.70047e-05
-9.60606e-05
0.000925812
-0.000153684
0.000954633
-0.000148624
0.000982777
-0.000144846
0.00101037
-0.000141787
0.00103752
-0.000139378
0.00106434
-0.000137512
0.0010909
-0.000136086
0.00111727
-0.000135017
0.00114351
-0.000134241
0.00116966
-0.000133701
0.00119575
-0.000133353
0.00122183
-0.000133156
0.00124789
-0.000133077
0.00127398
-0.000133088
0.00130008
-0.000133163
0.00132622
-0.000133281
0.0013524
-0.000133424
0.00137861
-0.000133574
0.00140486
-0.000133718
0.00143115
-0.000133844
0.00145745
-0.000133941
0.00148378
-0.000134001
0.00151011
-0.000134016
0.00153644
-0.000133981
0.00156276
-0.000133891
0.00158905
-0.000133742
0.0016153
-0.000133532
0.00164151
-0.000133258
0.00166765
-0.00013292
0.00169371
-0.000132517
0.00171969
-0.000132049
0.00174557
-0.000131516
0.00177133
-0.000130921
0.00179696
-0.000130265
0.00182246
-0.000129548
0.00184781
-0.000128774
0.001873
-0.000127944
0.00189802
-0.000127061
0.00192286
-0.000126128
0.0019475
-0.000125148
0.00197195
-0.000124123
0.0019962
-0.000123057
0.00202022
-0.000121952
0.00204403
-0.000120812
-0.00011964
0.000954079
-0.000182602
0.000982152
-0.000176696
0.00100961
-0.000172307
0.00103657
-0.000168741
0.00106312
-0.000165932
0.00108937
-0.000163761
0.00111539
-0.000162104
0.00114124
-0.000160868
0.00116698
-0.000159976
0.00119264
-0.000159363
0.00121826
-0.000158975
0.00124387
-0.000158765
0.00126949
-0.000158695
0.00129513
-0.000158728
0.0013208
-0.000158838
0.00134652
-0.000158996
0.00137227
-0.000159182
0.00139808
-0.000159376
0.00142392
-0.000159561
0.0014498
-0.000159724
0.00147571
-0.000159851
0.00150164
-0.000159933
0.00152759
-0.000159961
0.00155353
-0.000159928
0.00157947
-0.000159828
0.00160539
-0.000159658
0.00163127
-0.000159414
0.0016571
-0.000159094
0.00168288
-0.000158697
0.00170859
-0.000158222
0.00173421
-0.000157669
0.00175973
-0.00015704
0.00178514
-0.000156335
0.00181044
-0.000155557
0.0018356
-0.000154708
0.00186061
-0.000153789
0.00188547
-0.000152804
0.00191017
-0.000151756
0.00193468
-0.000150648
0.00195902
-0.000149483
0.00198316
-0.000148264
0.0020071
-0.000146997
0.00203083
-0.000145683
0.00205435
-0.000144328
-0.000142934
0.000987663
-0.000210542
0.00101484
-0.000203878
0.00104149
-0.000198953
0.00106768
-0.000194935
0.00109352
-0.000191772
0.0011191
-0.000189332
0.00114447
-0.000187476
0.0011697
-0.000186099
0.00119483
-0.000185113
0.00121992
-0.000184445
0.00124498
-0.000184034
0.00127004
-0.000183826
0.00129512
-0.000183776
0.00132023
-0.000183844
0.00134539
-0.000183997
0.0013706
-0.000184205
0.00139586
-0.000184443
0.00142117
-0.000184688
0.00144653
-0.000184922
0.00147194
-0.000185127
0.00149738
-0.00018529
0.00152284
-0.000185399
0.00154832
-0.000185444
0.00157381
-0.000185418
0.0015993
-0.000185314
0.00162477
-0.000185127
0.00165021
-0.000184854
0.00167561
-0.000184492
0.00170095
-0.000184041
0.00172623
-0.000183499
0.00175143
-0.000182867
0.00177653
-0.000182146
0.00180153
-0.000181337
0.00182642
-0.000180443
0.00185118
-0.000179465
0.0018758
-0.000178408
0.00190026
-0.000177274
0.00192457
-0.000176066
0.00194872
-0.000174789
0.00197268
-0.000173445
0.00199645
-0.00017204
0.00202003
-0.000170577
0.00204341
-0.000169062
0.00206658
-0.000167497
-0.000165888
0.00102638
-0.000237348
0.00105253
-0.000230027
0.00107823
-0.000224655
0.00110355
-0.00022025
0.00112856
-0.000216784
0.00115335
-0.000214119
0.00117797
-0.0002121
0.00120248
-0.000210611
0.00122693
-0.000209557
0.00125134
-0.000208857
0.00127574
-0.000208441
0.00130017
-0.000208252
0.00132463
-0.000208237
0.00134914
-0.000208354
0.00137371
-0.000208563
0.00139833
-0.000208831
0.00142302
-0.000209131
0.00144777
-0.000209435
0.00147257
-0.000209725
0.00149742
-0.00020998
0.00152232
-0.000210185
0.00154725
-0.000210327
0.0015722
-0.000210396
0.00159716
-0.000210382
0.00162213
-0.000210278
0.00164708
-0.00021008
0.00167201
-0.000209784
0.0016969
-0.000209386
0.00172175
-0.000208886
0.00174653
-0.000208283
0.00177124
-0.000207577
0.00179587
-0.00020677
0.00182039
-0.000205863
0.00184481
-0.000204859
0.0018691
-0.00020376
0.00189327
-0.000202571
0.00191729
-0.000201294
0.00194116
-0.000199934
0.00196486
-0.000198494
0.0019884
-0.00019698
0.00201175
-0.000195395
0.00203492
-0.000193745
0.00205789
-0.000192034
0.00208066
-0.000190268
-0.000188452
0.00107002
-0.000262875
0.001095
-0.000255008
0.00111964
-0.000249286
0.00114395
-0.000244568
0.00116803
-0.00024086
0.00119193
-0.000238018
0.0012157
-0.000235876
0.0012394
-0.000234309
0.00126306
-0.000233217
0.00128672
-0.00023251
0.00131039
-0.000232113
0.0013341
-0.000231962
0.00135786
-0.000232001
0.00138169
-0.00023218
0.00140558
-0.000232459
0.00142955
-0.000232799
0.00145359
-0.000233171
0.0014777
-0.000233545
0.00150188
-0.000233899
0.00152611
-0.000234212
0.00155039
-0.000234467
0.00157471
-0.000234649
0.00159906
-0.000234748
0.00162343
-0.000234752
0.00164781
-0.000234656
0.00167219
-0.000234453
0.00169654
-0.000234139
0.00172087
-0.000233712
0.00174515
-0.000233169
0.00176938
-0.000232511
0.00179354
-0.000231738
0.00181762
-0.000230851
0.00184161
-0.000229853
0.0018655
-0.000228746
0.00188927
-0.000227534
0.00191292
-0.00022622
0.00193643
-0.000224808
0.0019598
-0.000223303
0.00198302
-0.00022171
0.00200607
-0.000220032
0.00202895
-0.000218276
0.00205166
-0.000216447
0.00207417
-0.00021455
0.0020965
-0.000212592
-0.000210577
0.00111835
-0.000286979
0.00114203
-0.000278688
0.00116547
-0.000272726
0.00118868
-0.000267775
0.00121171
-0.00026389
0.00123462
-0.000260927
0.00125745
-0.000258708
0.00128025
-0.000257104
0.00130304
-0.000256007
0.00132585
-0.000255322
0.00134871
-0.000254969
0.00137162
-0.000254878
0.00139461
-0.000254989
0.00141768
-0.000255249
0.00144083
-0.000255612
0.00146407
-0.000256038
0.00148739
-0.000256494
0.0015108
-0.000256948
0.00153427
-0.000257377
0.00155782
-0.000257756
0.00158142
-0.000258069
0.00160507
-0.000258299
0.00162876
-0.000258435
0.00165247
-0.000258466
0.0016762
-0.000258384
0.00169993
-0.000258182
0.00172365
-0.000257858
0.00174734
-0.000257407
0.001771
-0.000256829
0.00179462
-0.000256123
0.00181817
-0.00025529
0.00184165
-0.000254332
0.00186505
-0.000253251
0.00188835
-0.000252049
0.00191155
-0.000250732
0.00193463
-0.000249302
0.00195759
-0.000247764
0.00198041
-0.000246123
0.00200308
-0.000244384
0.0020256
-0.000242553
0.00204796
-0.000240635
0.00207015
-0.000238636
0.00209216
-0.000236563
0.00211399
-0.000234421
-0.000232217
0.00117111
-0.000309526
0.00119336
-0.000300941
0.00121549
-0.000294856
0.00123748
-0.000289762
0.00125936
-0.000285773
0.00128118
-0.00028275
0.00130298
-0.000280506
0.00132478
-0.000278908
0.00134662
-0.000277843
0.00136851
-0.000277213
0.00139047
-0.000276932
0.00141252
-0.000276926
0.00143466
-0.00027713
0.0014569
-0.000277489
0.00147925
-0.000277954
0.00150169
-0.000278481
0.00152423
-0.000279034
0.00154686
-0.00027958
0.00156958
-0.000280093
0.00159237
-0.000280549
0.00161523
-0.000280929
0.00163814
-0.000281216
0.00166111
-0.000281397
0.0016841
-0.000281461
0.00170712
-0.000281401
0.00173015
-0.000281209
0.00175317
-0.000280881
0.00177618
-0.000280416
0.00179916
-0.00027981
0.0018221
-0.000279065
0.00184499
-0.00027818
0.00186782
-0.000277159
0.00189057
-0.000276003
0.00191323
-0.000274715
0.0019358
-0.000273301
0.00195827
-0.000271764
0.00198061
-0.000270109
0.00200283
-0.000268342
0.00202492
-0.000266468
0.00204686
-0.000264493
0.00206865
-0.000262424
0.00209027
-0.000260266
0.00211174
-0.000258026
0.00213303
-0.000255712
-0.00025333
0.00122799
-0.000330386
0.0012487
-0.000321648
0.00126941
-0.000315565
0.00129007
-0.000310423
0.00131071
-0.00030641
0.00133135
-0.000303394
0.00135203
-0.000301182
0.00137276
-0.000299638
0.00139356
-0.000298647
0.00141446
-0.000298107
0.00143545
-0.000297928
0.00145656
-0.000298034
0.00147779
-0.000298357
0.00149913
-0.000298835
0.0015206
-0.000299419
0.00154218
-0.000300063
0.00156387
-0.000300727
0.00158567
-0.000301378
0.00160757
-0.000301988
0.00162955
-0.000302531
0.00165161
-0.000302987
0.00167373
-0.00030334
0.00169591
-0.000303575
0.00171813
-0.000303682
0.00174038
-0.000303651
0.00176265
-0.000303477
0.00178492
-0.000303155
0.00180719
-0.000302683
0.00182944
-0.000302059
0.00185166
-0.000301282
0.00187383
-0.000300355
0.00189595
-0.00029928
0.00191801
-0.000298058
0.00193999
-0.000296695
0.00196188
-0.000295194
0.00198368
-0.000293561
0.00200537
-0.0002918
0.00202694
-0.000289917
0.00204839
-0.000287918
0.00206971
-0.000285811
0.00209089
-0.0002836
0.00211192
-0.000281294
0.00213279
-0.0002789
0.0021535
-0.000276425
-0.000273876
0.0012887
-0.000349442
0.00130775
-0.000340696
0.00132693
-0.000334746
0.00134617
-0.00032966
0.00136547
-0.000325709
0.00138484
-0.000322773
0.00140432
-0.000320653
0.00142389
-0.000319216
0.00144359
-0.000318344
0.00146342
-0.000317933
0.00148338
-0.000317892
0.00150349
-0.000318139
0.00152373
-0.000318604
0.00154412
-0.000319225
0.00156465
-0.000319948
0.00158531
-0.000320726
0.0016061
-0.000321516
0.00162701
-0.000322286
0.00164803
-0.000323004
0.00166914
-0.000323646
0.00169035
-0.000324189
0.00171162
-0.000324617
0.00173296
-0.000324916
0.00175436
-0.000325074
0.00177579
-0.000325083
0.00179725
-0.000324936
0.00181872
-0.000324629
0.0018402
-0.000324159
0.00186166
-0.000323525
0.00188311
-0.000322728
0.00190452
-0.000321768
0.00192589
-0.000320648
0.0019472
-0.000319372
0.00196845
-0.000317944
0.00198962
-0.000316367
0.00201071
-0.000314648
0.0020317
-0.000312791
0.00205259
-0.000310804
0.00207337
-0.000308693
0.00209402
-0.000306464
0.00211454
-0.000304125
0.00213493
-0.000301684
0.00215518
-0.000299147
0.00217528
-0.000296522
-0.000293819
0.00135289
-0.000366582
0.00137018
-0.000357981
0.00138773
-0.000352302
0.00140545
-0.000347379
0.00142332
-0.000343581
0.00144135
-0.000340803
0.00145954
-0.000338843
0.0014779
-0.00033757
0.00149642
-0.000336866
0.00151511
-0.000336627
0.00153398
-0.000336759
0.00155302
-0.00033718
0.00157223
-0.000337815
0.00159161
-0.000338603
0.00161115
-0.000339485
0.00163084
-0.000340414
0.00165067
-0.000341348
0.00167063
-0.00034225
0.00169072
-0.00034309
0.00171091
-0.000343842
0.00173121
-0.000344484
0.00175159
-0.000344998
0.00177204
-0.000345371
0.00179256
-0.00034559
0.00181313
-0.000345648
0.00183373
-0.000345538
0.00185435
-0.000345255
0.00187499
-0.000344798
0.00189563
-0.000344165
0.00191626
-0.000343357
0.00193687
-0.000342375
0.00195744
-0.000341222
0.00197797
-0.000339903
0.00199845
-0.00033842
0.00201886
-0.000336779
0.0020392
-0.000334986
0.00205945
-0.000333046
0.00207962
-0.000330967
0.00209968
-0.000328756
0.00211964
-0.000326419
0.00213947
-0.000323964
0.00215919
-0.000321399
0.00217877
-0.000318732
0.00219822
-0.000315972
-0.000313128
0.00142021
-0.000381708
0.00143563
-0.000373406
0.00145147
-0.000368141
0.00146759
-0.000363496
0.00148395
-0.000359948
0.00150056
-0.000357411
0.0015174
-0.000355682
0.00153447
-0.000354634
0.00155175
-0.000354151
0.00156925
-0.00035413
0.00158697
-0.000354474
0.00160489
-0.000355101
0.00162301
-0.000355937
0.00164132
-0.000356915
0.00165982
-0.000357979
0.00167848
-0.000359079
0.00169731
-0.000360173
0.00171628
-0.000361223
0.00173539
-0.000362198
0.00175462
-0.000363073
0.00177396
-0.000363825
0.0017934
-0.000364437
0.00181292
-0.000364894
0.00183252
-0.000365186
0.00185217
-0.000365303
0.00187187
-0.00036524
0.00189161
-0.000364993
0.00191137
-0.000364559
0.00193114
-0.000363938
0.00195092
-0.00036313
0.00197068
-0.000362138
0.00199042
-0.000360964
0.00201013
-0.000359612
0.0020298
-0.000358087
0.00204941
-0.000356395
0.00206897
-0.00035454
0.00208845
-0.000352531
0.00210786
-0.000350373
0.00212717
-0.000348074
0.0021464
-0.000345642
0.00216552
-0.000343084
0.00218453
-0.00034041
0.00220343
-0.000337628
0.0022222
-0.000334746
-0.000331774
0.00149027
-0.000394733
0.00150375
-0.000386887
0.00151779
-0.000382182
0.00153223
-0.000377932
0.00154702
-0.000374737
0.00156214
-0.000372529
0.00157756
-0.000371107
0.00159327
-0.000370348
0.00160927
-0.000370143
0.00162552
-0.000370387
0.00164203
-0.000370985
0.00165879
-0.000371854
0.00167577
-0.00037292
0.00169297
-0.000374116
0.00171038
-0.000375384
0.00172797
-0.000376676
0.00174575
-0.000377946
0.00176368
-0.00037916
0.00178177
-0.000380285
0.00179999
-0.000381296
0.00181834
-0.000382171
0.0018368
-0.000382892
0.00185535
-0.000383445
0.00187398
-0.00038382
0.00189269
-0.000384009
0.00191145
-0.000384004
0.00193026
-0.000383804
0.00194911
-0.000383405
0.00196798
-0.000382807
0.00198686
-0.000382012
0.00200574
-0.000381021
0.00202462
-0.000379839
0.00204348
-0.000378468
0.0020623
-0.000376914
0.00208109
-0.000375183
0.00209983
-0.000373281
0.00211851
-0.000371215
0.00213713
-0.000368991
0.00215568
-0.000366619
0.00217414
-0.000364106
0.00219252
-0.000361461
0.0022108
-0.000358691
0.00222898
-0.000355807
0.00224705
-0.000352818
-0.000349733
0.00156269
-0.000405579
0.00157415
-0.00039835
0.00158632
-0.000394351
0.00159901
-0.000390619
0.00161216
-0.000387883
0.00162572
-0.000386097
0.00163968
-0.00038506
0.00165399
-0.000384661
0.00166864
-0.000384792
0.0016836
-0.000385352
0.00169887
-0.000386248
0.00171441
-0.000387396
0.00173021
-0.000388724
0.00174626
-0.000390164
0.00176254
-0.000391661
0.00177903
-0.000393164
0.00179571
-0.00039463
0.00181257
-0.000396024
0.0018296
-0.000397313
0.00184678
-0.000398474
0.00186409
-0.000399484
0.00188153
-0.000400327
0.00189907
-0.000400989
0.00191671
-0.00040146
0.00193444
-0.000401731
0.00195223
-0.000401798
0.00197008
-0.000401656
0.00198798
-0.000401304
0.00200592
-0.000400743
0.00202388
-0.000399973
0.00204185
-0.000398997
0.00205983
-0.000397819
0.00207781
-0.000396442
0.00209577
-0.000394873
0.0021137
-0.000393118
0.0021316
-0.000391182
0.00214946
-0.000389073
0.00216727
-0.0003868
0.00218502
-0.000384369
0.0022027
-0.000381789
0.00222031
-0.00037907
0.00223784
-0.000376221
0.00225528
-0.000373251
0.00227264
-0.000370169
-0.000366987
0.00163706
-0.000414184
0.00164644
-0.000407731
0.00165668
-0.000404587
0.00166756
-0.000401498
0.001679
-0.000399331
0.00169097
-0.000398062
0.00170341
-0.000397496
0.00171627
-0.000397527
0.00172954
-0.000398056
0.00174317
-0.000398985
0.00175714
-0.000400223
0.00177144
-0.00040169
0.00178603
-0.000403312
0.00180089
-0.000405025
0.001816
-0.000406774
0.00183135
-0.00040851
0.00184691
-0.00041019
0.00186266
-0.00041178
0.0018786
-0.00041325
0.0018947
-0.000414575
0.00191095
-0.000415734
0.00192733
-0.000416712
0.00194384
-0.000417495
0.00196045
-0.000418074
0.00197716
-0.000418441
0.00199396
-0.000418591
0.00201082
-0.000418522
0.00202775
-0.000418231
0.00204473
-0.000417719
0.00206174
-0.000416988
0.00207878
-0.00041604
0.00209585
-0.00041488
0.00211292
-0.000413513
0.00212999
-0.000411943
0.00214704
-0.000410177
0.00216409
-0.000408223
0.0021811
-0.000406087
0.00219808
-0.000403778
0.00221501
-0.000401303
0.0022319
-0.000398673
0.00224872
-0.000395896
0.00226548
-0.000392982
0.00228217
-0.000389941
0.00229879
-0.000386783
0.00231532
-0.000383519
-0.00038016
0.00171295
-0.0004205
0.0017202
-0.000414981
0.00172846
-0.00041284
0.00173748
-0.000410522
0.00174718
-0.000409036
0.00175751
-0.000408384
0.00176838
-0.000408374
0.00177977
-0.00040891
0.00179161
-0.000409902
0.00180388
-0.000411253
0.00181654
-0.00041288
0.00182955
-0.000414704
0.00184289
-0.000416654
0.00185654
-0.000418668
0.00187046
-0.000420694
0.00188463
-0.000422684
0.00189904
-0.000424597
0.00191366
-0.000426401
0.00192848
-0.000428066
0.00194347
-0.00042957
0.00195863
-0.000430893
0.00197394
-0.00043202
0.00198938
-0.000432938
0.00200495
-0.000433639
0.00202062
-0.000434115
0.00203639
-0.000434363
0.00205225
-0.000434378
0.00206818
-0.000434162
0.00208417
-0.000433714
0.00210022
-0.000433036
0.00211631
-0.000432132
0.00213244
-0.000431005
0.00214859
-0.000429661
0.00216475
-0.000428106
0.00218092
-0.000426346
0.00219708
-0.000424388
0.00221324
-0.00042224
0.00222937
-0.000419911
0.00224548
-0.000417409
0.00226155
-0.000414744
0.00227758
-0.000411926
0.00229356
-0.000408963
0.00230948
-0.000405868
0.00232535
-0.000402649
0.00234115
-0.000399319
-0.000395889
0.00178994
-0.000424491
0.00179503
-0.000420062
0.00180126
-0.000419071
0.00180839
-0.000417653
0.00181631
-0.000416963
0.00182496
-0.000417031
0.00183425
-0.000417665
0.00184412
-0.000418783
0.00185452
-0.000420301
0.0018654
-0.000422132
0.00187672
-0.000424194
0.00188843
-0.000426414
0.0019005
-0.000428725
0.0019129
-0.00043107
0.0019256
-0.000433397
0.00193858
-0.000435662
0.00195181
-0.000437828
0.00196527
-0.000439862
0.00197895
-0.00044174
0.00199281
-0.000443439
0.00200686
-0.00044494
0.00202107
-0.00044623
0.00203543
-0.000447298
0.00204993
-0.000448134
0.00206454
-0.000448734
0.00207927
-0.000449093
0.00209411
-0.000449209
0.00210903
-0.000449082
0.00212403
-0.000448713
0.00213909
-0.000448104
0.00215422
-0.000447258
0.00216939
-0.00044618
0.00218461
-0.000444875
0.00219985
-0.00044335
0.00221512
-0.000441611
0.0022304
-0.000439666
0.00224568
-0.000437523
0.00226096
-0.000435191
0.00227623
-0.000432678
0.00229148
-0.000429994
0.0023067
-0.00042715
0.00232189
-0.000424156
0.00233705
-0.000421022
0.00235216
-0.00041776
0.00236722
-0.000414381
-0.000410897
0.00186759
-0.000426138
0.00187048
-0.000422953
0.00187467
-0.000423256
0.00187988
-0.000422866
0.00188601
-0.00042309
0.00189296
-0.00042398
0.00190064
-0.000425348
0.00190898
-0.000427126
0.00191792
-0.000429237
0.00192739
-0.000431602
0.00193734
-0.000434146
0.00194773
-0.000436802
0.00195851
-0.000439508
0.00196965
-0.00044221
0.00198112
-0.000444863
0.00199288
-0.000447425
0.00200492
-0.000449863
0.0020172
-0.000452147
0.00202972
-0.000454253
0.00204244
-0.000456162
0.00205536
-0.000457857
0.00206845
-0.000459326
0.00208171
-0.000460558
0.00209513
-0.000461546
0.00210868
-0.000462285
0.00212235
-0.000462771
0.00213615
-0.000463003
0.00215005
-0.000462981
0.00216404
-0.000462706
0.00217812
-0.000462181
0.00219227
-0.000461409
0.00220648
-0.000460396
0.00222076
-0.000459148
0.00223507
-0.000457669
0.00224943
-0.000455968
0.00226382
-0.000454052
0.00227823
-0.000451931
0.00229265
-0.000449612
0.00230707
-0.000447105
0.0023215
-0.00044442
0.00233592
-0.000441567
0.00235032
-0.000438558
0.0023647
-0.000435403
0.00237905
-0.000432114
0.00239337
-0.000428702
-0.000425181
0.00194546
-0.000425435
0.00194615
-0.000423645
0.00194828
-0.000425383
0.00195157
-0.00042615
0.00195588
-0.000427405
0.00196112
-0.000429222
0.00196719
-0.000431415
0.00197399
-0.000433929
0.00198145
-0.000436699
0.00198951
-0.000439653
0.00199808
-0.000442725
0.00200714
-0.000445855
0.00201662
-0.000448988
0.00202648
-0.000452077
0.0020367
-0.000455079
0.00204724
-0.00045796
0.00205806
-0.000460689
0.00206916
-0.000463241
0.0020805
-0.000465593
0.00209206
-0.000467729
0.00210384
-0.000469634
0.00211581
-0.000471297
0.00212796
-0.00047271
0.00214028
-0.000473865
0.00215276
-0.000474759
0.00216537
-0.000475388
0.00217812
-0.000475752
0.00219099
-0.000475851
0.00220397
-0.000475687
0.00221706
-0.000475263
0.00223023
-0.000474583
0.00224349
-0.000473652
0.00225681
-0.000472476
0.00227021
-0.000471061
0.00228365
-0.000469415
0.00229715
-0.000467546
0.00231068
-0.000465463
0.00232424
-0.000463174
0.00233783
-0.000460691
0.00235143
-0.000458021
0.00236504
-0.000455178
0.00237865
-0.000452171
0.00239226
-0.000449012
0.00240586
-0.000445713
0.00241945
-0.000442287
-0.000438745
0.00202311
-0.000422394
0.00202161
-0.000422146
0.00202168
-0.000425454
0.00202304
-0.000427507
0.00202554
-0.000429911
0.00202908
-0.000432758
0.00203353
-0.000435865
0.00203879
-0.000439192
0.00204478
-0.000442684
0.00205141
-0.000446281
0.00205861
-0.000449926
0.00206632
-0.000453567
0.00207449
-0.000457159
0.00208307
-0.00046066
0.00209203
-0.000464037
0.00210133
-0.000467258
0.00211094
-0.000470298
0.00212083
-0.000473135
0.00213099
-0.000475752
0.00214139
-0.000478132
0.00215202
-0.000480264
0.00216287
-0.000482139
0.0021739
-0.000483749
0.00218513
-0.000485088
0.00219652
-0.000486153
0.00220808
-0.000486943
0.00221978
-0.000487456
0.00223162
-0.000487693
0.00224359
-0.000487658
0.00225568
-0.000487352
0.00226788