/*--------------------------------*- C++ -*----------------------------------*\
  =========                 |
  \\      /  F ield         | OpenFOAM: The Open Source CFD Toolbox
   \\    /   O peration     | Website:  https://openfoam.org
    \\  /    A nd           | Version:  7
     \\/     M anipulation  |
\*---------------------------------------------------------------------------*/
FoamFile
{
    version     2.0;
    format      ascii;
    class       volVectorField;
    location    "15";
    object      U;
}
// * * * * * * * * * * * * * * * * * * * * * * * * * * * * * * * * * * * * * //

dimensions      [0 1 -1 0 0 0 0];

internalField   nonuniform List<vector> 
2625
(
(1.13547 -0.00268584 -1.51557e-21)
(1.13726 -0.00267749 4.44792e-22)
(1.13906 -0.00266904 -2.84313e-22)
(1.14085 -0.00266049 1.03394e-21)
(1.14265 -0.00265184 1.96101e-22)
(1.14444 -0.00264307 -1.14099e-21)
(1.14624 -0.0026342 8.85854e-22)
(1.14803 -0.00262521 -1.96724e-22)
(1.14982 -0.00261609 -7.52803e-22)
(1.15161 -0.00260686 2.7772e-22)
(1.15339 -0.00259749 5.30047e-23)
(1.15517 -0.00258799 2.15236e-22)
(1.15695 -0.00257835 1.71786e-22)
(1.15873 -0.00256854 -3.87499e-22)
(1.16049 -0.00255859 2.46507e-22)
(1.16226 -0.00254848 5.47091e-23)
(1.16401 -0.00253822 -1.17876e-22)
(1.16576 -0.00252778 7.07616e-24)
(1.1675 -0.00251718 6.30116e-24)
(1.13558 -0.00802574 -4.37066e-22)
(1.13738 -0.00799886 8.54792e-22)
(1.13918 -0.00797162 -1.01076e-21)
(1.14099 -0.00794401 4.64018e-22)
(1.14279 -0.00791603 -2.37585e-22)
(1.14459 -0.00788769 -3.17082e-22)
(1.14639 -0.00785897 3.24498e-22)
(1.14819 -0.00782988 -3.08139e-22)
(1.14998 -0.00780041 3.71065e-22)
(1.15178 -0.00777056 -1.49273e-23)
(1.15357 -0.00774033 -2.62795e-22)
(1.15536 -0.0077097 6.78898e-23)
(1.15714 -0.00767868 2.0257e-23)
(1.15892 -0.00764724 -1.34903e-22)
(1.16069 -0.00761539 8.08411e-23)
(1.16246 -0.00758313 1.83051e-22)
(1.16422 -0.00755043 -5.21131e-23)
(1.16598 -0.00751731 -1.20426e-23)
(1.16773 -0.00748373 1.31282e-23)
(1.13581 -0.0132543 -1.81167e-22)
(1.13762 -0.0132087 8.20251e-22)
(1.13943 -0.0131626 5.22486e-22)
(1.14124 -0.0131158 -7.46037e-22)
(1.14305 -0.0130685 -6.06585e-23)
(1.14486 -0.0130206 -2.43004e-22)
(1.14667 -0.0129721 1.96115e-22)
(1.14848 -0.012923 -1.56018e-22)
(1.15029 -0.0128733 2.03967e-22)
(1.1521 -0.012823 8.71014e-23)
(1.1539 -0.0127721 2.19387e-23)
(1.1557 -0.0127206 -9.90831e-23)
(1.15749 -0.0126685 1.35942e-22)
(1.15928 -0.0126157 -2.29243e-22)
(1.16107 -0.0125623 2.05827e-22)
(1.16285 -0.0125083 9.16395e-23)
(1.16462 -0.0124536 -1.05983e-22)
(1.16639 -0.0123982 -2.30077e-23)
(1.16815 -0.0123422 8.62914e-24)
(1.13614 -0.0183975 2.56705e-22)
(1.13796 -0.018333 7.5671e-23)
(1.13979 -0.0182677 -7.09405e-22)
(1.14161 -0.0182016 2.10833e-22)
(1.14344 -0.0181346 4.13218e-22)
(1.14526 -0.0180669 -2.62807e-22)
(1.14709 -0.0179982 1.31482e-22)
(1.14891 -0.0179288 -3.35232e-22)
(1.15073 -0.0178585 8.94944e-23)
(1.15255 -0.0177874 -2.03686e-22)
(1.15437 -0.0177155 2.7039e-22)
(1.15618 -0.0176427 -5.893e-23)
(1.15799 -0.0175691 9.10812e-23)
(1.1598 -0.0174947 -8.25486e-23)
(1.1616 -0.0174193 4.36664e-23)
(1.16339 -0.0173431 -6.80636e-23)
(1.16518 -0.0172661 4.05684e-23)
(1.16696 -0.0171881 3.44982e-23)
(1.16874 -0.0171092 -2.22331e-23)
(1.13657 -0.0234636 5.90397e-22)
(1.13841 -0.0233804 -5.82057e-22)
(1.14025 -0.023296 -3.28577e-22)
(1.14209 -0.0232105 6.49202e-22)
(1.14393 -0.0231239 1.57101e-22)
(1.14577 -0.0230362 -1.80922e-22)
(1.14762 -0.0229474 8.04997e-22)
(1.14946 -0.0228575 -6.90329e-22)
(1.1513 -0.0227666 -7.19366e-23)
(1.15313 -0.0226746 2.33409e-22)
(1.15497 -0.0225815 -3.17848e-22)
(1.1568 -0.0224873 1.89829e-22)
(1.15863 -0.0223921 -3.95318e-22)
(1.16045 -0.0222957 1.06457e-22)
(1.16227 -0.0221983 7.34309e-23)
(1.16409 -0.0220997 -1.57976e-23)
(1.1659 -0.0220001 -3.01819e-23)
(1.1677 -0.0218992 -7.89906e-24)
(1.16949 -0.0217973 -2.19747e-24)
(1.13709 -0.0284638 -5.4325e-22)
(1.13895 -0.0283619 -1.27717e-22)
(1.1408 -0.0282585 1.76741e-22)
(1.14267 -0.0281537 6.83444e-23)
(1.14453 -0.0280475 -6.73907e-22)
(1.14639 -0.0279399 5.57043e-23)
(1.14825 -0.0278309 1.78038e-22)
(1.15011 -0.0277205 -6.03216e-22)
(1.15198 -0.0276088 1.91026e-22)
(1.15383 -0.0274957 -1.41904e-22)
(1.15569 -0.0273813 3.38261e-22)
(1.15755 -0.0272656 -1.44337e-22)
(1.1594 -0.0271485 -1.21309e-22)
(1.16124 -0.0270301 8.21607e-23)
(1.16308 -0.0269103 -1.28215e-23)
(1.16492 -0.0267892 1.91149e-22)
(1.16675 -0.0266667 -3.55245e-23)
(1.16857 -0.0265428 -2.4491e-23)
(1.17039 -0.0264175 -8.2389e-24)
(1.13769 -0.0334066 1.62459e-21)
(1.13957 -0.0332862 -4.13881e-22)
(1.14145 -0.033164 6.81464e-22)
(1.14333 -0.0330399 -5.10958e-22)
(1.14522 -0.0329142 1.04331e-21)
(1.1471 -0.0327867 -7.13958e-22)
(1.14899 -0.0326575 -5.48445e-22)
(1.15087 -0.0325266 4.08347e-22)
(1.15276 -0.0323941 -4.30377e-22)
(1.15464 -0.0322599 3.85844e-22)
(1.15652 -0.0321241 5.10553e-23)
(1.1584 -0.0319867 -1.60871e-22)
(1.16028 -0.0318476 4.95777e-22)
(1.16215 -0.0317069 -2.2875e-22)
(1.16402 -0.0315646 -2.71354e-23)
(1.16588 -0.0314207 -5.24471e-23)
(1.16773 -0.0312751 1.17916e-22)
(1.16958 -0.0311278 3.42017e-24)
(1.17143 -0.0309789 2.60454e-23)
(1.13838 -0.0383002 1.33382e-21)
(1.14028 -0.0381614 -1.00299e-21)
(1.14218 -0.0380204 1.17857e-21)
(1.14409 -0.0378773 -7.10536e-22)
(1.146 -0.037732 9.58507e-22)
(1.14791 -0.0375846 -5.00301e-22)
(1.14982 -0.0374352 1.27725e-22)
(1.15173 -0.0372838 -1.74551e-22)
(1.15364 -0.0371304 2.87473e-22)
(1.15555 -0.0369751 -9.85087e-23)
(1.15746 -0.0368177 2.61188e-22)
(1.15937 -0.0366585 -2.13771e-22)
(1.16127 -0.0364973 -1.57036e-22)
(1.16317 -0.0363341 -2.92892e-24)
(1.16506 -0.0361691 7.71047e-23)
(1.16695 -0.0360021 -9.46146e-23)
(1.16884 -0.0358331 -5.61763e-23)
(1.17072 -0.0356622 5.37189e-24)
(1.17259 -0.0354894 8.13601e-24)
(1.13912 -0.0431518 3.13032e-22)
(1.14105 -0.0429947 -6.0873e-22)
(1.14298 -0.0428351 -9.78384e-23)
(1.14492 -0.0426728 6.13698e-23)
(1.14685 -0.0425081 -3.91201e-22)
(1.14879 -0.0423408 -3.17122e-22)
(1.15073 -0.0421712 2.81154e-22)
(1.15267 -0.0419992 1.51212e-22)
(1.15461 -0.0418249 -5.58675e-22)
(1.15655 -0.0416482 -1.69718e-22)
(1.15849 -0.0414692 4.78189e-22)
(1.16042 -0.041288 -1.98794e-23)
(1.16236 -0.0411045 5.53851e-23)
(1.16429 -0.0409187 4.18559e-24)
(1.16621 -0.0407306 1.51496e-22)
(1.16813 -0.0405403 -6.69141e-23)
(1.17005 -0.0403477 -2.80228e-23)
(1.17196 -0.0401529 2.00643e-23)
(1.17386 -0.0399557 6.51997e-24)
(1.13993 -0.0479679 1.42488e-22)
(1.14189 -0.0477926 1.50911e-21)
(1.14385 -0.0476143 -1.31122e-22)
(1.14581 -0.047433 -3.39872e-22)
(1.14778 -0.0472488 -4.08301e-22)
(1.14975 -0.0470617 4.62991e-22)
(1.15172 -0.0468718 -2.63097e-22)
(1.15369 -0.0466791 -7.72761e-22)
(1.15566 -0.0464837 4.52759e-22)
(1.15763 -0.0462856 2.70851e-22)
(1.1596 -0.0460848 -3.97087e-22)
(1.16157 -0.0458814 5.56434e-22)
(1.16354 -0.0456753 -2.61552e-22)
(1.1655 -0.0454666 -5.02959e-23)
(1.16746 -0.0452553 -1.68882e-22)
(1.16941 -0.0450414 1.33283e-22)
(1.17136 -0.0448249 -2.72257e-23)
(1.17331 -0.0446057 3.09415e-23)
(1.17524 -0.044384 -9.14833e-24)
(1.14079 -0.0527544 5.31945e-22)
(1.14278 -0.0525609 -9.90033e-22)
(1.14477 -0.052364 -1.19965e-22)
(1.14676 -0.0521636 8.26974e-22)
(1.14876 -0.0519599 -6.63961e-23)
(1.15076 -0.0517529 -1.50935e-23)
(1.15277 -0.0515426 3.16246e-22)
(1.15477 -0.0513291 -9.4531e-23)
(1.15678 -0.0511125 -2.83459e-23)
(1.15879 -0.0508928 -2.37409e-22)
(1.16079 -0.05067 5.38775e-23)
(1.16279 -0.0504442 -6.17248e-23)
(1.1648 -0.0502153 -2.20905e-22)
(1.16679 -0.0499835 -6.52841e-23)
(1.16879 -0.0497486 1.46882e-22)
(1.17078 -0.0495108 -8.5216e-23)
(1.17277 -0.04927 4.16801e-23)
(1.17475 -0.0490262 -2.57901e-23)
(1.17672 -0.0487794 3.32225e-24)
(1.14169 -0.0575165 1.65279e-21)
(1.14371 -0.0573049 2.97379e-22)
(1.14574 -0.0570894 -4.41739e-22)
(1.14777 -0.0568699 -2.38799e-22)
(1.1498 -0.0566466 -1.15143e-22)
(1.15184 -0.0564195 -7.90788e-22)
(1.15388 -0.0561888 3.0266e-23)
(1.15592 -0.0559544 -2.98222e-22)
(1.15796 -0.0557164 3.99134e-22)
(1.16001 -0.0554749 -2.03625e-22)
(1.16205 -0.0552299 4.60491e-22)
(1.16409 -0.0549814 6.50084e-23)
(1.16613 -0.0547295 -1.49695e-22)
(1.16817 -0.0544741 8.71535e-23)
(1.1702 -0.0542154 1.24872e-22)
(1.17223 -0.0539533 -2.35294e-22)
(1.17426 -0.0536878 -2.67784e-23)
(1.17628 -0.0534189 8.71962e-23)
(1.17829 -0.0531466 -2.93034e-23)
(1.14469 -0.0620294 -1.95471e-21)
(1.14675 -0.0617952 4.4602e-22)
(1.14882 -0.0615565 4.67829e-22)
(1.15089 -0.0613135 4.84999e-22)
(1.15296 -0.0610663 -7.0893e-22)
(1.15504 -0.0608149 8.34541e-22)
(1.15712 -0.0605594 -6.46429e-22)
(1.1592 -0.0602999 -3.58324e-22)
(1.16129 -0.0600363 -5.1953e-23)
(1.16337 -0.0597688 1.62827e-22)
(1.16545 -0.0594974 -1.17917e-22)
(1.16753 -0.0592221 2.28463e-22)
(1.16961 -0.0589429 1.34964e-22)
(1.17168 -0.0586599 -1.92087e-22)
(1.17375 -0.0583731 1.39756e-22)
(1.17582 -0.0580825 -9.39034e-23)
(1.17788 -0.0577881 -3.3763e-23)
(1.17994 -0.0574899 9.75852e-24)
(1.14569 -0.0667386 9.63097e-22)
(1.14779 -0.0664856 1.74864e-22)
(1.1499 -0.0662277 -1.03561e-21)
(1.15201 -0.065965 -1.85573e-22)
(1.15413 -0.0656975 1.13128e-21)
(1.15625 -0.0654253 5.12018e-23)
(1.15837 -0.0651484 -5.33336e-23)
(1.16049 -0.064867 6.84829e-22)
(1.16262 -0.0645812 -9.3339e-23)
(1.16474 -0.0642909 -4.78211e-22)
(1.16687 -0.0639962 -3.63993e-22)
(1.16899 -0.0636971 -1.79684e-22)
(1.17111 -0.0633938 4.40855e-23)
(1.17323 -0.0630861 -1.42828e-22)
(1.17534 -0.0627742 -1.18563e-22)
(1.17745 -0.062458 2.84281e-23)
(1.17956 -0.0621376 6.11617e-23)
(1.18166 -0.0618129 -6.44968e-24)
(1.14672 -0.0714364 -8.38362e-22)
(1.14886 -0.0711646 -7.24789e-22)
(1.15101 -0.0708874 -7.39182e-23)
(1.15317 -0.0706047 1.46124e-21)
(1.15533 -0.0703167 -3.70261e-22)
(1.15749 -0.0700234 2.96562e-22)
(1.15966 -0.0697251 6.62127e-22)
(1.16182 -0.0694216 -4.08361e-22)
(1.16399 -0.0691131 -1.48955e-22)
(1.16616 -0.0687996 -7.15627e-23)
(1.16833 -0.0684813 2.99175e-22)
(1.1705 -0.0681581 3.12016e-22)
(1.17267 -0.0678302 2.17074e-22)
(1.17483 -0.0674974 -5.90709e-23)
(1.17699 -0.0671599 6.74925e-23)
(1.17915 -0.0668177 1.03978e-23)
(1.1813 -0.0664707 -4.84839e-23)
(1.18345 -0.066119 -6.35992e-24)
(1.14776 -0.0761263 2.67851e-22)
(1.14995 -0.0758356 -1.79054e-23)
(1.15215 -0.0755388 1.22856e-21)
(1.15435 -0.075236 -1.95174e-22)
(1.15655 -0.0749273 -9.057e-22)
(1.15876 -0.0746129 3.89854e-22)
(1.16098 -0.0742926 3.28743e-22)
(1.16319 -0.0739668 1.10221e-21)
(1.16541 -0.0736353 4.37712e-23)
(1.16762 -0.0732983 3.44274e-22)
(1.16984 -0.0729558 2.10379e-24)
(1.17206 -0.0726082 -3.44955e-22)
(1.17427 -0.0722552 -2.47491e-22)
(1.17648 -0.0718969 8.57277e-23)
(1.17869 -0.0715333 3.37581e-23)
(1.1809 -0.0711644 3.26735e-23)
(1.1831 -0.0707903 -9.92866e-24)
(1.1853 -0.070411 1.72112e-23)
(1.14882 -0.0808112 6.31403e-22)
(1.15106 -0.0805016 7.81821e-23)
(1.1533 -0.0801851 -9.22794e-22)
(1.15555 -0.0798621 3.85657e-22)
(1.1578 -0.0795325 -6.06446e-22)
(1.16006 -0.0791966 -5.68743e-22)
(1.16232 -0.0788543 -3.28653e-22)
(1.16459 -0.0785058 -1.72279e-22)
(1.16685 -0.0781512 2.36767e-22)
(1.16912 -0.0777905 -4.18184e-22)
(1.17139 -0.0774239 -5.48984e-22)
(1.17365 -0.077051 2.82408e-22)
(1.17592 -0.0766722 -1.38534e-22)
(1.17818 -0.0762876 -2.55479e-25)
(1.18044 -0.0758973 3.97102e-24)
(1.1827 -0.0755012 -1.11175e-24)
(1.18495 -0.0750993 -3.16211e-23)
(1.1872 -0.0746917 -1.19738e-24)
(1.14988 -0.0854941 4.98331e-22)
(1.15217 -0.0851653 4.10245e-22)
(1.15446 -0.0848291 -1.01931e-21)
(1.15676 -0.0844856 7.15097e-22)
(1.15907 -0.0841349 -1.04515e-22)
(1.16138 -0.0837772 6.95891e-22)
(1.16369 -0.0834125 -2.05752e-22)
(1.16601 -0.0830409 3.10495e-24)
(1.16832 -0.0826626 4.55858e-23)
(1.17064 -0.0822778 8.78767e-22)
(1.17296 -0.0818863 1.71767e-22)
(1.17528 -0.0814879 1.61118e-22)
(1.1776 -0.0810829 2.63786e-22)
(1.17992 -0.0806717 1.73412e-22)
(1.18223 -0.080254 3.92252e-23)
(1.18454 -0.0798301 -8.83458e-23)
(1.18685 -0.0793998 -2.05263e-23)
(1.18915 -0.0789632 -1.95201e-25)
(1.15094 -0.0901774 -7.19816e-22)
(1.15328 -0.0898294 -1.34501e-21)
(1.15563 -0.0894732 4.99173e-22)
(1.15799 -0.0891091 6.65649e-22)
(1.16034 -0.088737 -1.87048e-22)
(1.16271 -0.0883571 4.31734e-23)
(1.16508 -0.0879696 -1.20011e-21)
(1.16745 -0.0875746 -3.16932e-22)
(1.16982 -0.0871721 1.80487e-24)
(1.17219 -0.0867622 -1.06671e-21)
(1.17457 -0.086345 2.20009e-24)
(1.17694 -0.0859209 -2.73999e-22)
(1.17931 -0.0854896 -7.35267e-23)
(1.18169 -0.0850512 -1.4044e-22)
(1.18405 -0.0846057 -1.50053e-22)
(1.18642 -0.0841533 -3.85783e-23)
(1.18878 -0.0836939 5.88296e-23)
(1.19114 -0.0832276 -2.0233e-23)
(1.152 -0.0948634 4.99662e-22)
(1.15439 -0.0944961 3.06138e-21)
(1.1568 -0.0941198 -6.57928e-22)
(1.15921 -0.0937347 2.37314e-22)
(1.16163 -0.093341 -1.05117e-21)
(1.16405 -0.0929388 8.31742e-22)
(1.16647 -0.0925282 -6.37318e-22)
(1.1689 -0.0921093 5.83276e-22)
(1.17133 -0.0916823 -3.13612e-22)
(1.17376 -0.0912472 3.4736e-22)
(1.17619 -0.0908042 1.97338e-22)
(1.17862 -0.0903534 -5.4133e-23)
(1.18105 -0.0898948 2.27361e-22)
(1.18348 -0.0894285 -6.00012e-23)
(1.18591 -0.0889545 9.61597e-23)
(1.18833 -0.0884728 9.44446e-23)
(1.19075 -0.0879835 -6.97229e-24)
(1.19317 -0.0874866 3.26753e-23)
(1.15304 -0.0995541 1.01743e-22)
(1.1555 -0.0991673 2.12942e-22)
(1.15796 -0.0987707 2.11779e-22)
(1.16043 -0.0983645 -5.20607e-22)
(1.16291 -0.0979489 3.87322e-22)
(1.16539 -0.097524 -1.13214e-21)
(1.16787 -0.0970899 -1.11428e-23)
(1.17036 -0.0966469 1.0312e-22)
(1.17285 -0.0961949 -1.31763e-23)
(1.17534 -0.0957341 4.50183e-22)
(1.17783 -0.0952647 -5.35311e-22)
(1.18033 -0.0947867 3.23701e-22)
(1.18282 -0.0943002 -3.5691e-23)
(1.18531 -0.0938053 -1.97216e-23)
(1.18779 -0.093302 -3.19413e-23)
(1.19028 -0.0927903 -1.04192e-22)
(1.19276 -0.0922703 -1.11766e-24)
(1.19523 -0.0917419 -1.94462e-23)
(1.15407 -0.104251 -1.12692e-22)
(1.15659 -0.103845 -2.5592e-21)
(1.15912 -0.103428 1.88852e-21)
(1.16165 -0.103 4.76097e-22)
(1.16419 -0.102563 -1.15467e-22)
(1.16673 -0.102115 -3.21599e-22)
(1.16928 -0.101657 7.8442e-23)
(1.17183 -0.101189 7.47075e-22)
(1.17438 -0.100712 9.45031e-23)
(1.17694 -0.100225 -3.64161e-23)
(1.17949 -0.0997282 1.86677e-22)
(1.18204 -0.0992225 -3.82368e-22)
(1.1846 -0.0987074 8.15276e-23)
(1.18715 -0.0981831 6.43573e-23)
(1.1897 -0.0976497 -3.67019e-24)
(1.19225 -0.0971072 -2.36385e-23)
(1.19479 -0.0965555 1.19576e-23)
(1.19733 -0.0959948 -2.97943e-24)
(1.15509 -0.108957 -1.11184e-21)
(1.15767 -0.108531 1.51765e-21)
(1.16026 -0.108093 -1.10483e-21)
(1.16286 -0.107644 5.076e-22)
(1.16546 -0.107184 4.96483e-22)
(1.16807 -0.106712 4.27071e-22)
(1.17068 -0.10623 8.56442e-22)
(1.1733 -0.105738 -8.95783e-22)
(1.17592 -0.105234 -3.87097e-22)
(1.17854 -0.10472 7.0416e-22)
(1.18116 -0.104196 -1.88435e-22)
(1.18378 -0.103662 9.83442e-23)
(1.18639 -0.103118 -9.29975e-24)
(1.18901 -0.102563 1.09796e-22)
(1.19163 -0.101999 1.1234e-22)
(1.19424 -0.101425 3.70536e-23)
(1.19684 -0.100841 -5.77812e-25)
(1.19945 -0.100246 1.62608e-23)
(1.15608 -0.113672 -6.86393e-22)
(1.15873 -0.113226 -1.22672e-21)
(1.16139 -0.112767 -8.14227e-22)
(1.16406 -0.112297 -1.45574e-21)
(1.16673 -0.111814 5.31937e-22)
(1.1694 -0.111319 1.54352e-22)
(1.17209 -0.110812 -4.52121e-22)
(1.17477 -0.110294 2.3033e-22)
(1.17745 -0.109764 7.03316e-22)
(1.18014 -0.109223 -4.05537e-22)
(1.18283 -0.108671 -3.97891e-23)
(1.18552 -0.108107 -7.86538e-23)
(1.1882 -0.107533 -1.6243e-22)
(1.19089 -0.106947 -2.0134e-22)
(1.19357 -0.106351 -1.21179e-22)
(1.19625 -0.105744 1.38481e-23)
(1.19892 -0.105126 -3.67709e-23)
(1.20159 -0.104497 -1.77461e-24)
(1.15704 -0.118398 9.26974e-22)
(1.15977 -0.117932 1.48524e-21)
(1.1625 -0.117453 1.76379e-21)
(1.16524 -0.11696 -1.7808e-21)
(1.16798 -0.116454 -1.16106e-21)
(1.17073 -0.115935 -1.86316e-22)
(1.17348 -0.115404 5.29179e-22)
(1.17623 -0.114859 -6.14444e-22)
(1.17899 -0.114302 -8.17857e-22)
(1.18175 -0.113733 -1.35366e-22)
(1.18451 -0.113152 6.1631e-22)
(1.18726 -0.112559 1.12305e-23)
(1.19002 -0.111954 1.47062e-22)
(1.19277 -0.111336 2.32705e-22)
(1.19552 -0.110707 2.02433e-22)
(1.19827 -0.110066 -2.29062e-23)
(1.20102 -0.109414 3.75795e-23)
(1.20375 -0.108749 -4.70041e-24)
(1.15798 -0.123136 -5.33614e-22)
(1.16078 -0.12265 -1.52077e-21)
(1.16358 -0.12215 -1.0253e-21)
(1.1664 -0.121635 1.04457e-21)
(1.16922 -0.121106 2.42512e-21)
(1.17204 -0.120563 3.54123e-22)
(1.17486 -0.120006 -5.84526e-22)
(1.17769 -0.119435 4.2367e-23)
(1.18052 -0.118851 9.13472e-22)
(1.18335 -0.118253 -2.77594e-23)
(1.18618 -0.117642 2.2875e-22)
(1.18901 -0.117018 1.92312e-22)
(1.19184 -0.116381 -1.4745e-22)
(1.19467 -0.115731 -5.74652e-23)
(1.19749 -0.115068 -4.79016e-23)
(1.20031 -0.114392 -2.2797e-23)
(1.20313 -0.113703 1.07256e-23)
(1.20594 -0.113001 -2.83859e-24)
(1.15888 -0.127888 2.75154e-21)
(1.16176 -0.127382 1.73325e-21)
(1.16465 -0.126861 3.84954e-22)
(1.16754 -0.126324 -9.52958e-22)
(1.17043 -0.125771 -1.04459e-21)
(1.17333 -0.125204 -3.35952e-22)
(1.17624 -0.124621 2.56959e-22)
(1.17914 -0.124023 7.11449e-22)
(1.18205 -0.12341 -6.75237e-22)
(1.18495 -0.122783 4.77982e-22)
(1.18786 -0.122142 -7.52139e-22)
(1.19077 -0.121486 1.35675e-22)
(1.19367 -0.120817 -3.03556e-23)
(1.19657 -0.120133 -5.42423e-23)
(1.19947 -0.119435 -2.34593e-23)
(1.20237 -0.118722 1.01139e-23)
(1.20525 -0.117996 -1.33273e-24)
(1.20813 -0.117255 4.74595e-24)
(1.15976 -0.132654 -2.84306e-21)
(1.16272 -0.132129 -7.15388e-22)
(1.16568 -0.131587 -2.27577e-21)
(1.16865 -0.131027 2.24856e-21)
(1.17163 -0.130451 -1.01316e-21)
(1.17461 -0.129858 -8.13336e-22)
(1.17759 -0.129249 -1.25694e-22)
(1.18058 -0.128624 3.33191e-22)
(1.18357 -0.127982 1.06879e-21)
(1.18655 -0.127325 -6.79321e-22)
(1.18954 -0.126653 1.47542e-22)
(1.19252 -0.125965 -4.64257e-22)
(1.19551 -0.125261 3.14253e-24)
(1.19848 -0.124542 1.58981e-22)
(1.20146 -0.123807 -4.19891e-23)
(1.20443 -0.123057 1.29918e-24)
(1.20739 -0.122291 -1.3973e-24)
(1.21035 -0.12151 8.67406e-25)
(1.16059 -0.137436 1.69411e-21)
(1.16364 -0.136891 -2.03646e-21)
(1.16669 -0.136328 2.84026e-21)
(1.16975 -0.135746 -2.72335e-21)
(1.17281 -0.135146 1.01148e-21)
(1.17587 -0.134528 -1.64212e-22)
(1.17894 -0.133892 -1.93768e-22)
(1.18201 -0.133238 -1.09906e-21)
(1.18508 -0.132568 -1.62028e-22)
(1.18814 -0.13188 4.42281e-22)
(1.19121 -0.131175 -6.9938e-23)
(1.19428 -0.130454 4.15158e-22)
(1.19734 -0.129715 -5.49903e-23)
(1.2004 -0.128959 -1.38014e-22)
(1.20345 -0.128187 -3.55009e-23)
(1.2065 -0.127397 3.64922e-23)
(1.20954 -0.12659 -4.73896e-24)
(1.21257 -0.125766 9.36061e-25)
(1.16139 -0.142235 -2.96071e-24)
(1.16453 -0.14167 2.03615e-21)
(1.16767 -0.141086 -8.08663e-22)
(1.17081 -0.140481 2.3585e-21)
(1.17396 -0.139857 -2.37622e-21)
(1.17711 -0.139213 1.87845e-21)
(1.18027 -0.138551 8.65887e-22)
(1.18342 -0.137869 6.52342e-22)
(1.18658 -0.137168 -1.18623e-21)
(1.18973 -0.13645 1.0466e-22)
(1.19288 -0.135711 2.16294e-22)
(1.19603 -0.134955 -4.47864e-23)
(1.19918 -0.134179 1.36424e-22)
(1.20232 -0.133386 7.06419e-23)
(1.20546 -0.132574 7.02235e-23)
(1.20858 -0.131743 -2.9766e-23)
(1.2117 -0.130892 6.355e-24)
(1.21481 -0.130023 -7.03481e-24)
(1.16215 -0.147051 5.72363e-23)
(1.16538 -0.146467 -1.86195e-21)
(1.16861 -0.145862 7.27798e-22)
(1.17185 -0.145235 -1.24495e-21)
(1.17509 -0.144586 1.85608e-21)
(1.17833 -0.143917 -1.28968e-21)
(1.18158 -0.143226 6.63448e-23)
(1.18482 -0.142515 5.29401e-22)
(1.18807 -0.141784 3.18683e-22)
(1.19131 -0.141032 1.63625e-22)
(1.19455 -0.14026 2.721e-22)
(1.19779 -0.139467 -5.37082e-22)
(1.20102 -0.138655 1.52474e-22)
(1.20425 -0.137821 -1.11434e-22)
(1.20746 -0.136968 -4.24719e-23)
(1.21067 -0.136093 9.09461e-24)
(1.21387 -0.135197 -2.9418e-24)
(1.21706 -0.13428 7.68904e-24)
(1.16287 -0.151886 -3.29378e-21)
(1.1662 -0.151284 1.53745e-21)
(1.16953 -0.150657 -1.20734e-21)
(1.17286 -0.150008 5.59058e-22)
(1.17619 -0.149335 5.21494e-22)
(1.17953 -0.148639 1.13382e-21)
(1.18287 -0.14792 3.35538e-22)
(1.18621 -0.147179 -4.95926e-22)
(1.18955 -0.146416 6.83141e-23)
(1.19288 -0.14563 -8.97305e-22)
(1.19621 -0.144823 -2.12593e-22)
(1.19954 -0.143993 2.26703e-22)
(1.20286 -0.143141 -2.19672e-22)
(1.20617 -0.142266 5.87103e-23)
(1.20948 -0.141369 2.37526e-23)
(1.21277 -0.140449 2.7677e-24)
(1.21606 -0.139505 1.85939e-24)
(1.21932 -0.138537 4.51608e-24)
(1.16355 -0.156742 2.24221e-21)
(1.16698 -0.156121 5.9012e-22)
(1.17041 -0.155473 7.16449e-22)
(1.17384 -0.154801 1.05622e-21)
(1.17728 -0.154103 -1.3436e-21)
(1.18071 -0.153381 4.85896e-22)
(1.18415 -0.152634 -9.32095e-22)
(1.18758 -0.151862 -4.222e-22)
(1.19102 -0.151067 -4.65771e-22)
(1.19445 -0.150246 4.65645e-22)
(1.19787 -0.149402 -2.34424e-22)
(1.20129 -0.148533 4.18621e-23)
(1.2047 -0.14764 -4.91275e-24)
(1.20811 -0.146721 -1.69162e-23)
(1.2115 -0.145778 -2.35785e-23)
(1.21488 -0.144809 -3.0815e-24)
(1.21825 -0.143814 -6.19083e-24)
(1.2216 -0.142792 -6.81375e-24)
(1.16419 -0.161619 -1.08057e-21)
(1.16772 -0.160979 -8.51942e-22)
(1.17126 -0.160311 -4.66795e-23)
(1.17479 -0.159616 -2.00906e-21)
(1.17833 -0.158894 -6.95824e-22)
(1.18187 -0.158145 -1.02114e-22)
(1.18541 -0.157368 -9.94918e-23)
(1.18895 -0.156566 7.11677e-22)
(1.19248 -0.155736 8.31836e-22)
(1.19601 -0.15488 -2.24439e-22)
(1.19953 -0.153997 6.57874e-22)
(1.20304 -0.153087 -1.87083e-22)
(1.20655 -0.15215 -7.32544e-23)
(1.21005 -0.151185 -3.27669e-23)
(1.21353 -0.150193 7.00994e-24)
(1.217 -0.149172 2.81303e-24)
(1.22045 -0.148122 1.60922e-23)
(1.22388 -0.147043 -1.07064e-23)
(1.16479 -0.166518 3.39322e-21)
(1.16843 -0.165861 -2.30645e-22)
(1.17207 -0.165173 -1.48302e-21)
(1.17572 -0.164455 2.60912e-22)
(1.17937 -0.163708 -9.29635e-22)
(1.18301 -0.162931 -4.40729e-22)
(1.18666 -0.162125 5.16076e-22)
(1.1903 -0.16129 -1.68492e-22)
(1.19393 -0.160425 -2.31201e-22)
(1.19756 -0.159531 1.77115e-22)
(1.20118 -0.158608 -1.25045e-22)
(1.2048 -0.157655 2.14918e-22)
(1.2084 -0.156672 8.1646e-23)
(1.21199 -0.155659 2.54065e-23)
(1.21556 -0.154614 -2.69854e-23)
(1.21912 -0.153538 5.78954e-23)
(1.22266 -0.15243 -7.57799e-23)
(1.22617 -0.151289 5.73833e-24)
(1.16535 -0.171442 -2.77561e-21)
(1.1691 -0.170767 1.82335e-21)
(1.17286 -0.170059 7.90165e-22)
(1.17662 -0.169319 -1.29918e-21)
(1.18038 -0.168546 2.12193e-21)
(1.18413 -0.167742 1.57746e-21)
(1.18789 -0.166905 -2.64333e-22)
(1.19164 -0.166036 -8.43936e-22)
(1.19538 -0.165135 4.89326e-22)
(1.19911 -0.164202 -1.55431e-22)
(1.20284 -0.163236 -1.96732e-22)
(1.20655 -0.162238 -4.23594e-23)
(1.21025 -0.161206 -1.98947e-23)
(1.21394 -0.16014 3.94707e-24)
(1.2176 -0.15904 1.03212e-23)
(1.22125 -0.157905 -1.28611e-22)
(1.22487 -0.156734 1.58994e-23)
(1.22847 -0.155526 1.82449e-23)
(1.16587 -0.176391 3.44298e-22)
(1.16974 -0.175699 -1.72976e-21)
(1.17362 -0.174972 4.77138e-22)
(1.17749 -0.174209 3.34385e-21)
(1.18137 -0.173411 -8.25205e-22)
(1.18524 -0.172577 -1.67076e-21)
(1.1891 -0.171709 -2.48245e-22)
(1.19297 -0.170805 -1.3196e-22)
(1.19682 -0.169866 -1.61441e-22)
(1.20066 -0.168892 2.31079e-22)
(1.20449 -0.167881 -9.55049e-23)
(1.20831 -0.166835 6.84441e-23)
(1.21211 -0.165751 3.16265e-23)
(1.21589 -0.164629 -2.60904e-24)
(1.21965 -0.16347 7.95077e-23)
(1.22339 -0.162271 -3.10855e-23)
(1.2271 -0.161032 1.28922e-22)
(1.23077 -0.159752 -3.65102e-23)
(1.16635 -0.181368 -7.10984e-23)
(1.17035 -0.180659 1.93769e-21)
(1.17435 -0.179912 4.20447e-22)
(1.17834 -0.179127 -1.41115e-21)
(1.18234 -0.178303 -3.91545e-22)
(1.18633 -0.17744 -4.29498e-22)
(1.19031 -0.176539 3.58461e-22)
(1.19429 -0.175599 1.66595e-22)
(1.19825 -0.174619 6.54526e-23)
(1.20221 -0.173601 -4.98547e-23)
(1.20615 -0.172543 1.65537e-23)
(1.21007 -0.171445 -1.09352e-22)
(1.21397 -0.170305 2.01646e-23)
(1.21785 -0.169124 -1.76834e-23)
(1.22171 -0.167901 -2.49212e-23)
(1.22553 -0.166634 4.03383e-23)
(1.22933 -0.165322 -5.69769e-23)
(1.23308 -0.163964 9.40033e-24)
(1.16679 -0.186373 3.02293e-21)
(1.17092 -0.185649 -4.29995e-21)
(1.17505 -0.184883 -1.45664e-21)
(1.17917 -0.184074 1.17598e-21)
(1.18329 -0.183223 1.2292e-21)
(1.1874 -0.18233 -2.05941e-22)
(1.19151 -0.181395 -9.5089e-22)
(1.19561 -0.180417 -3.15129e-22)
(1.19969 -0.179395 4.00328e-23)
(1.20375 -0.17833 -9.43823e-23)
(1.20781 -0.177221 9.04498e-23)
(1.21184 -0.176068 4.40892e-23)
(1.21584 -0.174869 2.81653e-23)
(1.21982 -0.173623 7.4287e-23)
(1.22377 -0.17233 -1.60284e-23)
(1.22769 -0.170989 2.63717e-22)
(1.23156 -0.169599 -1.34905e-22)
(1.2354 -0.168157 2.05318e-23)
(1.1672 -0.19141 -2.39886e-21)
(1.17146 -0.19067 3.26277e-22)
(1.17572 -0.189884 2.10474e-21)
(1.17998 -0.189052 -2.72064e-21)
(1.18423 -0.188174 -1.54772e-21)
(1.18847 -0.187249 7.05699e-22)
(1.1927 -0.186278 1.44109e-21)
(1.19692 -0.18526 9.92225e-22)
(1.20112 -0.184194 -4.6395e-22)
(1.2053 -0.183079 7.65308e-23)
(1.20947 -0.181915 -5.3753e-23)
(1.21361 -0.180702 2.57507e-24)
(1.21772 -0.179438 -5.60374e-23)
(1.2218 -0.178123 -2.51834e-23)
(1.22584 -0.176756 -1.61535e-22)
(1.22984 -0.175335 -1.12446e-22)
(1.2338 -0.173859 1.82159e-22)
(1.23771 -0.172327 1.10984e-23)
(1.16758 -0.196479 3.62756e-21)
(1.17198 -0.195724 1.21174e-21)
(1.17638 -0.194919 -1.12222e-21)
(1.18077 -0.194063 1.82066e-21)
(1.18515 -0.193156 2.79052e-21)
(1.18952 -0.192197 -7.9721e-22)
(1.19388 -0.191188 -4.35196e-22)
(1.19823 -0.190126 6.54208e-23)
(1.20255 -0.189012 1.19608e-22)
(1.20686 -0.187844 -3.73838e-23)
(1.21113 -0.186621 5.98893e-23)
(1.21538 -0.185345 -7.26955e-23)
(1.2196 -0.184012 -3.81052e-23)
(1.22377 -0.182622 1.73816e-22)
(1.22791 -0.181174 2.03547e-22)
(1.232 -0.179667 -1.62993e-22)
(1.23604 -0.178099 -1.68097e-23)
(1.24002 -0.176469 -9.27601e-23)
(1.16793 -0.201584 -5.13489e-21)
(1.17248 -0.200813 1.59087e-21)
(1.17701 -0.199988 3.7142e-22)
(1.18155 -0.199106 -9.43634e-22)
(1.18607 -0.198169 -1.35269e-21)
(1.19058 -0.197175 8.5028e-22)
(1.19507 -0.196125 -1.24026e-21)
(1.19954 -0.195016 1.20798e-22)
(1.20399 -0.19385 -7.17162e-23)
(1.20841 -0.192625 -1.56396e-23)
(1.21281 -0.19134 1.97125e-23)
(1.21716 -0.189994 5.61568e-23)
(1.22148 -0.188586 -1.46288e-22)
(1.22576 -0.187116 -2.93308e-22)
(1.22998 -0.185581 -3.15872e-22)
(1.23416 -0.183981 -2.08065e-22)
(1.23827 -0.182313 1.46012e-23)
(1.24232 -0.180578 -6.49825e-25)
(1.16825 -0.206724 1.87718e-21)
(1.17295 -0.205939 -1.24775e-21)
(1.17764 -0.205092 -4.27932e-22)
(1.18231 -0.204184 -9.08282e-22)
(1.18698 -0.203215 -1.19823e-22)
(1.19162 -0.202183 -1.32437e-22)
(1.19625 -0.201088 1.28644e-21)
(1.20085 -0.19993 -3.77561e-22)
(1.20543 -0.198708 -2.81538e-23)
(1.20997 -0.197421 -4.3104e-23)
(1.21448 -0.196068 -8.25134e-24)
(1.21895 -0.194647 -1.23252e-22)
(1.22337 -0.193159 -4.68945e-23)
(1.22774 -0.191601 2.34551e-22)
(1.23206 -0.189972 5.04055e-22)
(1.23631 -0.188271 4.13689e-22)
(1.2405 -0.186496 3.00854e-23)
(1.24461 -0.184647 5.42424e-23)
(1.16856 -0.211903 1.43779e-21)
(1.17341 -0.211101 1.23818e-21)
(1.17824 -0.210233 -9.64821e-22)
(1.18307 -0.209297 5.55086e-22)
(1.18788 -0.208292 -1.19955e-21)
(1.19267 -0.20722 1.05191e-21)
(1.19743 -0.206078 -6.7243e-23)
(1.20217 -0.204866 -5.00576e-22)
(1.20687 -0.203583 2.33805e-22)
(1.21154 -0.202229 -1.47599e-23)
(1.21616 -0.200802 -1.07965e-22)
(1.22074 -0.199301 1.70096e-22)
(1.22526 -0.197724 6.26185e-22)
(1.22973 -0.196072 -6.94895e-22)
(1.23413 -0.194342 -1.25005e-22)
(1.23846 -0.192532 -3.49384e-22)
(1.24271 -0.190642 3.0456e-23)
(1.24687 -0.18867 9.44936e-24)
(1.16884 -0.217121 2.93279e-22)
(1.17385 -0.216302 -1.81199e-21)
(1.17884 -0.21541 1.83619e-21)
(1.18382 -0.214443 1.16101e-21)
(1.18878 -0.213402 7.85733e-23)
(1.19371 -0.212285 5.7075e-22)
(1.19862 -0.211091 -7.87833e-23)
(1.20349 -0.209821 6.21487e-22)
(1.20832 -0.208472 -3.29908e-22)
(1.2131 -0.207045 7.91181e-24)
(1.21784 -0.205538 2.79338e-22)
(1.22253 -0.203949 -7.31016e-23)
(1.22715 -0.202279 -7.89173e-22)
(1.23171 -0.200524 5.9864e-22)
(1.23619 -0.198685 -4.59725e-22)
(1.24059 -0.196759 7.44369e-23)
(1.2449 -0.194745 -1.26333e-22)
(1.24911 -0.192641 5.68845e-23)
(1.16911 -0.22238 -1.5926e-21)
(1.17428 -0.221542 1.7751e-21)
(1.17944 -0.220624 1.04442e-22)
(1.18457 -0.219624 -1.51747e-21)
(1.18968 -0.218541 1.50975e-21)
(1.19476 -0.217376 -1.34168e-21)
(1.1998 -0.216126 -1.31987e-21)
(1.20481 -0.214792 6.62179e-23)
(1.20977 -0.213372 1.67925e-22)
(1.21467 -0.211866 4.32788e-23)
(1.21953 -0.210272 -7.93574e-23)
(1.22431 -0.208589 -2.22622e-22)
(1.22903 -0.206816 4.57377e-22)
(1.23367 -0.204952 4.22173e-22)
(1.23823 -0.202995 -7.59128e-23)
(1.2427 -0.200944 2.46303e-23)
(1.24706 -0.198797 -1.33246e-22)
(1.25132 -0.196553 -8.72189e-23)
(1.16937 -0.227679 3.43915e-21)
(1.17471 -0.226821 4.88878e-22)
(1.18003 -0.225873 -2.46862e-21)
(1.18532 -0.224836 2.10116e-21)
(1.19058 -0.223709 2.61009e-22)
(1.19581 -0.22249 5.33938e-23)
(1.20099 -0.22118 5.26731e-22)
(1.20613 -0.219776 -3.65501e-22)
(1.21121 -0.218279 -3.91578e-23)
(1.21624 -0.216687 1.67208e-22)
(1.2212 -0.214999 -4.52873e-23)
(1.22609 -0.213215 1.01483e-22)
(1.23091 -0.211332 5.53635e-22)
(1.23563 -0.209349 -1.08123e-21)
(1.24026 -0.207267 1.58038e-22)
(1.24478 -0.205082 -7.80764e-23)
(1.24919 -0.202793 7.8204e-23)
(1.25349 -0.2004 1.00485e-23)
(1.16963 -0.233019 2.29843e-23)
(1.17514 -0.232137 -2.07632e-21)
(1.18062 -0.231157 2.68877e-21)
(1.18607 -0.230079 -1.98663e-21)
(1.19148 -0.228902 -1.38463e-21)
(1.19686 -0.227625 8.59482e-22)
(1.20218 -0.226249 5.52167e-24)
(1.20745 -0.224771 2.18811e-22)
(1.21266 -0.223188 -3.89059e-23)
(1.21781 -0.221503 -5.95074e-22)
(1.22288 -0.219714 -4.77591e-23)
(1.22786 -0.217819 2.76509e-22)
(1.23276 -0.215818 -5.22146e-23)
(1.23756 -0.21371 1.00563e-21)
(1.24225 -0.211492 3.95337e-22)
(1.24683 -0.209165 5.56424e-23)
(1.25128 -0.206726 6.6676e-23)
(1.2556 -0.204174 -1.6579e-22)
(1.17556 -0.237489 -2.33686e-21)
(1.18121 -0.236473 -5.18597e-22)
(1.18682 -0.235349 4.46129e-22)
(1.19239 -0.234117 5.93131e-22)
(1.19791 -0.232776 2.29507e-22)
(1.20337 -0.231326 3.72834e-22)
(1.20877 -0.229767 2.35624e-24)
(1.21411 -0.228093 -1.59717e-23)
(1.21936 -0.226307 6.68967e-22)
(1.22454 -0.224409 -1.23422e-22)
(1.22961 -0.222397 -4.2596e-22)
(1.23459 -0.22027 -9.57779e-22)
(1.23946 -0.218027 -4.13824e-22)
(1.24421 -0.215666 -4.39729e-22)
(1.24883 -0.213187 -2.39503e-22)
(1.25332 -0.210588 -1.07589e-22)
(1.25765 -0.207868 4.2062e-23)
(1.19329 -0.239348 5.20912e-22)
(1.19896 -0.237937 -1.47471e-21)