/*--------------------------------*- C++ -*----------------------------------*\
  =========                 |
  \\      /  F ield         | OpenFOAM: The Open Source CFD Toolbox
   \\    /   O peration     | Website:  https://openfoam.org
    \\  /    A nd           | Version:  7
     \\/     M anipulation  |
\*---------------------------------------------------------------------------*/
FoamFile
{
    version     2.0;
    format      ascii;
    class       volScalarField;
    location    "5";
    object      p;
}
// * * * * * * * * * * * * * * * * * * * * * * * * * * * * * * * * * * * * * //

dimensions      [0 2 -2 0 0 0 0];

internalField   nonuniform List<scalar> 
2625
(
-0.0398625
-0.0409685
-0.0420504
-0.0390394
-0.0401663
-0.0412677
-0.0423478
-0.0395915
-0.04072
-0.0418214
-0.0429076
-0.0403918
-0.0415242
-0.0426273
-0.0437239
-0.0414218
-0.0425611
-0.0436683
-0.0447804
-0.0426736
-0.0438226
-0.044936
-0.046068
-0.0441381
-0.0452995
-0.0464211
-0.0475773
-0.0458084
-0.046985
-0.0481169
-0.0493012
-0.0476787
-0.0488732
-0.0500175
-0.0512335
-0.0497442
-0.0509594
-0.0521183
-0.0533694
-0.0520009
-0.0532398
-0.0544157
-0.055705
-0.0544458
-0.0557115
-0.0569069
-0.0582375
-0.0570764
-0.0583721
-0.05959
-0.0609646
-0.0598909
-0.0612202
-0.0624637
-0.063885
-0.0628877
-0.0642545
-0.0655272
-0.0669978
-0.0660658
-0.0674742
-0.0687804
-0.0703028
-0.0694244
-0.0708789
-0.0722235
-0.0738003
-0.0729628
-0.0744682
-0.0758569
-0.0774908
-0.0766801
-0.078242
-0.0796811
-0.081375
-0.0805757
-0.0821997
-0.0836969
-0.0854539
-0.0846486
-0.086341
-0.0879046
-0.0897282
-0.0888972
-0.0906646
-0.0923043
-0.0941986
-0.0933198
-0.0951692
-0.0968956
-0.0988651
-0.0979138
-0.0998525
-0.101677
-0.103727
-0.102676
-0.104712
-0.106648
-0.108785
-0.107602
-0.109742
-0.111803
-0.114034
-0.112688
-0.114939
-0.11714
-0.119473
-0.117926
-0.120297
-0.122653
-0.125098
-0.12331
-0.125806
-0.128334
-0.130901
-0.128831
-0.13146
-0.134175
-0.136877
-0.13448
-0.137247
-0.140166
-0.143017
-0.140246
-0.143156
-0.146295
-0.149311
-0.146117
-0.149174
-0.152549
-0.155748
-0.15208
-0.155287
-0.158914
-0.162315
-0.158121
-0.161479
-0.165373
-0.168999
-0.164226
-0.167736
-0.171909
-0.175785
-0.170379
-0.17404
-0.178505
-0.182658
-0.176563
-0.180373
-0.185142
-0.189602
-0.182762
-0.186719
-0.1918
-0.196602
-0.188958
-0.193057
-0.19846
-0.203641
-0.195135
-0.199371
-0.205101
-0.210704
-0.201274
-0.205642
-0.211705
-0.217776
-0.207357
-0.211851
-0.218251
-0.224842
-0.213367
-0.217981
-0.22472
-0.231889
-0.219286
-0.224013
-0.231093
-0.238904
-0.225095
-0.22993
-0.23735
-0.245878
-0.230775
-0.235712
-0.243473
-0.252799
-0.236307
-0.241341
-0.249442
-0.259661
-0.241672
-0.246799
-0.255238
-0.266457
-0.246846
-0.252063
-0.260838
-0.273181
-0.251805
-0.25711
-0.266217
-0.27983
-0.256519
-0.261908
-0.271346
-0.260957
-0.0434043
-0.0449989
-0.0465484
-0.048052
-0.0495072
-0.0509111
-0.0522611
-0.0535545
-0.0547889
-0.0559616
-0.0570702
-0.0581122
-0.0590855
-0.0599876
-0.0608164
-0.0615699
-0.0622463
-0.0628436
-0.0633603
-0.063795
-0.0641462
-0.0644129
-0.0645941
-0.0646891
-0.0646973
-0.0646185
-0.0644526
-0.0641998
-0.0638604
-0.0634351
-0.0629249
-0.062331
-0.0616547
-0.060898
-0.0600628
-0.0591513
-0.0581663
-0.0571105
-0.0559871
-0.0547994
-0.0535513
-0.0522464
-0.0508891
-0.0494836
-0.0480347
-0.0465469
-0.0450254
-0.0434751
-0.0437199
-0.0453157
-0.0468613
-0.0483628
-0.0498167
-0.051219
-0.0525669
-0.0538579
-0.0550894
-0.056259
-0.0573641
-0.0584023
-0.0593713
-0.0602688
-0.0610928
-0.0618411
-0.0625119
-0.0631034
-0.063614
-0.0640422
-0.0643868
-0.0646466
-0.0648207
-0.0649085
-0.0649093
-0.0648229
-0.0646492
-0.0643885
-0.0640412
-0.0636079
-0.0630896
-0.0624876
-0.0618032
-0.0610384
-0.0601951
-0.0592757
-0.0582827
-0.0572191
-0.0560879
-0.0548927
-0.053637
-0.0523249
-0.0509604
-0.0495481
-0.0480924
-0.0465981
-0.0450703
-0.043514
-0.044324
-0.0459253
-0.0474648
-0.0489633
-0.0504154
-0.0518149
-0.053159
-0.0544454
-0.0556717
-0.0568352
-0.0579336
-0.0589643
-0.0599251
-0.0608137
-0.0616282
-0.0623663
-0.0630264
-0.0636065
-0.0641052
-0.0645211
-0.0648527
-0.0650992
-0.0652596
-0.0653332
-0.0653195
-0.0652184
-0.0650297
-0.0647538
-0.064391
-0.0639422
-0.0634083
-0.0627906
-0.0620906
-0.0613101
-0.0604512
-0.0595162
-0.0585079
-0.0574291
-0.056283
-0.055073
-0.0538029
-0.0524767
-0.0510984
-0.0496727
-0.048204
-0.0466971
-0.0451572
-0.0435892
-0.0452059
-0.0468142
-0.0483443
-0.049838
-0.0512871
-0.0526824
-0.0540209
-0.0553005
-0.0565188
-0.0576734
-0.0587618
-0.0597815
-0.0607302
-0.0616059
-0.0624063
-0.0631296
-0.0637738
-0.0643374
-0.0648187
-0.0652164
-0.0655293
-0.0657563
-0.0658966
-0.0659496
-0.0659148
-0.0657922
-0.0655817
-0.0652836
-0.0648984
-0.064427
-0.0638703
-0.0632298
-0.062507
-0.0617037
-0.0608221
-0.0598647
-0.0588341
-0.0577332
-0.0565654
-0.0553341
-0.054043
-0.0526963
-0.0512981
-0.0498529
-0.0483653
-0.0468402
-0.0452827
-0.0436978
-0.0463497
-0.0479669
-0.0494845
-0.0509721
-0.0524173
-0.0538069
-0.0551378
-0.0564083
-0.0576163
-0.0587591
-0.0598342
-0.0608394
-0.0617723
-0.0626309
-0.063413
-0.0641168
-0.0647404
-0.0652823
-0.0657409
-0.066115
-0.0664033
-0.066605
-0.0667192
-0.0667454
-0.0666833
-0.0665327
-0.0662938
-0.0659669
-0.0655527
-0.065052
-0.0644659
-0.0637959
-0.0630435
-0.0622108
-0.0612999
-0.0603134
-0.0592539
-0.0581246
-0.0569287
-0.0556698
-0.0543518
-0.0529786
-0.0515546
-0.0500843
-0.0485724
-0.0470238
-0.0454436
-0.0438369
-0.0477444
-0.0493715
-0.0508734
-0.0523533
-0.0537934
-0.0551758
-0.0564971
-0.0577562
-0.0589511
-0.0600792
-0.0611379
-0.0621251
-0.0630384
-0.0638758
-0.0646354
-0.0653151
-0.0659134
-0.0664287
-0.0668594
-0.0672045
-0.0674628
-0.0676334
-0.0677157
-0.0677092
-0.0676137
-0.0674291
-0.0671556
-0.0667937
-0.0663441
-0.0658078
-0.0651859
-0.06448
-0.0636917
-0.0628233
-0.0618768
-0.0608549
-0.0597605
-0.0585967
-0.0573668
-0.0560746
-0.0547238
-0.0533186
-0.0518634
-0.0503628
-0.0488215
-0.0472444
-0.0456368
-0.0440039
-0.0493797
-0.0510175
-0.0525005
-0.0539711
-0.0554047
-0.0567781
-0.0580876
-0.0593329
-0.060512
-0.0616223
-0.0626614
-0.0636269
-0.0645169
-0.0653291
-0.0660618
-0.066713
-0.0672813
-0.067765
-0.0681629
-0.0684737
-0.0686966
-0.0688307
-0.0688755
-0.0688306
-0.0686958
-0.0684713
-0.0681573
-0.0677544
-0.0672634
-0.0666853
-0.0660216
-0.0652738
-0.0644437
-0.0635335
-0.0625455
-0.0614825
-0.0603474
-0.0591434
-0.0578739
-0.0565428
-0.0551539
-0.0537116
-0.0522201
-0.0506842
-0.0491088
-0.0474988
-0.0458594
-0.0441959
-0.0512474
-0.0528959
-0.0543565
-0.0558159
-0.0572417
-0.058604
-0.0598994
-0.0611282
-0.0622886
-0.063378
-0.064394
-0.0653344
-0.066197
-0.06698
-0.0676815
-0.0682998
-0.0688333
-0.0692807
-0.0696406
-0.0699122
-0.0700944
-0.0701866
-0.0701884
-0.0700995
-0.0699199
-0.0696497
-0.0692895
-0.0688398
-0.0683017
-0.0676762
-0.0669649
-0.0661694
-0.0652917
-0.0643341
-0.0632991
-0.0621895
-0.0610082
-0.0597587
-0.0584444
-0.0570693
-0.0556374
-0.0541529
-0.0526205
-0.0510448
-0.0494307
-0.0477835
-0.0461082
-0.0444103
-0.0533402
-0.0549989
-0.0564336
-0.0578799
-0.0592959
-0.060645
-0.0619237
-0.0631332
-0.0642719
-0.0653371
-0.0663264
-0.0672378
-0.0680692
-0.0688188
-0.0694847
-0.0700655
-0.0705596
-0.0709658
-0.0712829
-0.0715101
-0.0716465
-0.0716916
-0.0716451
-0.0715068
-0.0712769
-0.0709556
-0.0705436
-0.0700416
-0.0694508
-0.0687724
-0.0680079
-0.0671594
-0.0662287
-0.0652184
-0.064131
-0.0629695
-0.0617369
-0.0604369
-0.0590729
-0.057649
-0.0561693
-0.0546382
-0.0530604
-0.0514406
-0.0497839
-0.0480954
-0.0463805
-0.0446445
-0.0556517
-0.0573196
-0.0587248
-0.0601557
-0.0615599
-0.0628933
-0.0641524
-0.0653396
-0.0664533
-0.0674908
-0.0684498
-0.0693283
-0.0701243
-0.0708362
-0.0714622
-0.072001
-0.072451
-0.0728112
-0.0730805
-0.0732583
-0.0733437
-0.0733365
-0.0732365
-0.0730436
-0.072758
-0.0723803
-0.0719112
-0.0713517
-0.0707028
-0.0699661
-0.0691434
-0.0682365
-0.0672477
-0.0661796
-0.0650348
-0.0638165
-0.0625279
-0.0611725
-0.0597543
-0.0582771
-0.0567452
-0.0551633
-0.053536
-0.0518682
-0.050165
-0.0484316
-0.0466735
-0.0448961
-0.0581767
-0.059852
-0.0612237
-0.0626369
-0.064027
-0.0653418
-0.0665784
-0.0677399
-0.0688251
-0.0698312
-0.0707559
-0.0715974
-0.0723539
-0.0730238
-0.0736054
-0.0740974
-0.0744986
-0.074808
-0.0750247
-0.075148
-0.0751775
-0.0751129
-0.0749541
-0.0747014
-0.0743551
-0.0739159
-0.0733845
-0.0727622
-0.0720502
-0.0712502
-0.0703641
-0.069394
-0.0683422
-0.0672114
-0.0660046
-0.0647248
-0.0633756
-0.0619605
-0.0604835
-0.0589489
-0.0573608
-0.0557241
-0.0540434
-0.0523239
-0.0505706
-0.048789
-0.0469845
-0.0451627
-0.0609103
-0.0625908
-0.0639249
-0.0653177
-0.0666909
-0.0679841
-0.0691947
-0.070327
-0.0713799
-0.0723506
-0.0732371
-0.0740374
-0.07475
-0.0753732
-0.0759058
-0.0763464
-0.076694
-0.0769478
-0.0771069
-0.0771708
-0.0771394
-0.0770124
-0.0767899
-0.0764724
-0.0760603
-0.0755544
-0.0749558
-0.0742657
-0.0734858
-0.0726176
-0.0716633
-0.0706252
-0.0695057
-0.0683078
-0.0670343
-0.0656888
-0.0642746
-0.0627957
-0.061256
-0.0596599
-0.0580118
-0.0563166
-0.0545791
-0.0528044
-0.0509978
-0.0491648
-0.0473109
-0.0454418
-0.0638484
-0.0655309
-0.0668232
-0.0681926
-0.0695459
-0.070814
-0.0719949
-0.0730942
-0.0741108
-0.075042
-0.0758858
-0.0766405
-0.0773047
-0.0778768
-0.0783556
-0.0787401
-0.0790292
-0.0792224
-0.079319
-0.0793187
-0.0792213
-0.079027
-0.0787359
-0.0783485
-0.0778657
-0.0772884
-0.0766177
-0.0758552
-0.0750024
-0.0740614
-0.0730344
-0.0719238
-0.0707322
-0.0694627
-0.0681185
-0.066703
-0.0652199
-0.0636732
-0.062067
-0.0604058
-0.0586942
-0.0569371
-0.0551394
-0.0533064
-0.0514436
-0.0495563
-0.0476503
-0.0457313
-0.066987
-0.0686676
-0.0699137
-0.0712566
-0.0725865
-0.0738255
-0.0749727
-0.0760348
-0.0770109
-0.0778982
-0.0786949
-0.0793994
-0.0800104
-0.0805266
-0.0809469
-0.0812704
-0.0814963
-0.081624
-0.0816532
-0.0815837
-0.0814155
-0.0811489
-0.0807843
-0.0803224
-0.0797641
-0.0791105
-0.0783631
-0.0775234
-0.0765934
-0.0755751
-0.074471
-0.0732835
-0.0720157
-0.0706706
-0.0692516
-0.0677623
-0.0662065
-0.0645883
-0.0629121
-0.0611824
-0.059404
-0.0575818
-0.055721
-0.0538268
-0.0519049
-0.0499607
-0.0480001
-0.0460289
-0.070322
-0.0719961
-0.0731917
-0.0745044
-0.075807
-0.0770128
-0.078122
-0.0791425
-0.0800734
-0.0809122
-0.0816571
-0.0823066
-0.0828597
-0.0833151
-0.083672
-0.0839296
-0.0840873
-0.0841447
-0.0841017
-0.0839581
-0.0837143
-0.0833706
-0.0829277
-0.0823864
-0.081748
-0.0810136
-0.0801849
-0.0792637
-0.078252
-0.0771522
-0.0759667
-0.0746984
-0.0733504
-0.0719258
-0.0704282
-0.0688615
-0.0672295
-0.0655365
-0.063787
-0.0619857
-0.0601374
-0.0582472
-0.0563204
-0.0543625
-0.052379
-0.0503755
-0.0483581
-0.0463325
-0.0738498
-0.0755119
-0.0766524
-0.077931
-0.0792019
-0.0803699
-0.0814365
-0.0824106
-0.0832917
-0.0840771
-0.0847652
-0.0853549
-0.0858451
-0.0862348
-0.0865234
-0.0867101
-0.0867947
-0.0867769
-0.0866566
-0.0864342
-0.0861099
-0.0856844
-0.0851585
-0.0845334
-0.0838102
-0.0829906
-0.0820763
-0.0810692
-0.0799718
-0.0787863
-0.0775156
-0.0761626
-0.0747306
-0.0732229
-0.0716433
-0.0699957
-0.0682842
-0.0665133
-0.0646875
-0.0628116
-0.0608907
-0.0589299
-0.0569346
-0.0549104
-0.052863
-0.0507982
-0.0487219
-0.04664
-0.0775659
-0.0792098
-0.0802907
-0.0815311
-0.0827656
-0.0838908
-0.0849097
-0.0858324
-0.0866586
-0.0873856
-0.0880119
-0.0885367
-0.0889589
-0.0892779
-0.0894931
-0.0896041
-0.0896106
-0.0895126
-0.0893104
-0.0890042
-0.0885948
-0.0880829
-0.0874695
-0.0867559
-0.0859437
-0.0850345
-0.0840304
-0.0829335
-0.0817462
-0.0804712
-0.0791115
-0.0776702
-0.0761507
-0.0745565
-0.0728916
-0.07116
-0.0693661
-0.0675143
-0.0656093
-0.0636563
-0.0616602
-0.0596264
-0.0575603
-0.0554678
-0.0533545
-0.0512263
-0.0490893
-0.0469495
-0.0814659
-0.0830845
-0.0841016
-0.0852993
-0.086492
-0.087569
-0.0885349
-0.0894011
-0.0901671
-0.0908304
-0.0913898
-0.0918444
-0.0921936
-0.0924367
-0.0925735
-0.0926037
-0.0925272
-0.0923443
-0.0920552
-0.0916607
-0.0911614
-0.0905585
-0.0898532
-0.0890469
-0.0881414
-0.0871385
-0.0860405
-0.0848498
-0.083569
-0.0822009
-0.0807486
-0.0792155
-0.0776052
-0.0759214
-0.0741682
-0.0723497
-0.0704705
-0.0685352
-0.0665486
-0.0645159
-0.0624424
-0.0603334
-0.0581945
-0.0560317
-0.0538506
-0.0516574
-0.0494581
-0.0472589
-0.0855446
-0.0871301
-0.0880793
-0.0892293
-0.0903747
-0.0913978
-0.0923052
-0.0931093
-0.0938097
-0.0944039
-0.0948909
-0.0952702
-0.0955411
-0.0957033
-0.0957566
-0.095701
-0.0955367
-0.0952639
-0.0948834
-0.0943958
-0.0938022
-0.0931039
-0.0923023
-0.0913991
-0.0903962
-0.0892957
-0.0881
-0.0868118
-0.0854338
-0.0839691
-0.082421
-0.080793
-0.0790888
-0.0773125
-0.0754681
-0.0735601
-0.0715931
-0.0695718
-0.0675013
-0.0653869
-0.0632338
-0.0610477
-0.0588342
-0.0565994
-0.054349
-0.0520893
-0.0498264
-0.0475665
-0.0897961
-0.09134
-0.0922175
-0.0933148
-0.0944067
-0.0953699
-0.096213
-0.0969494
-0.0975785
-0.0980982
-0.0985075
-0.098806
-0.0989934
-0.0990695
-0.0990344
-0.098888
-0.0986309
-0.0982636
-0.0977869
-0.0972018
-0.0965096
-0.0957116
-0.0948095
-0.0938053
-0.0927011
-0.0914992
-0.0902022
-0.0888129
-0.0873344
-0.0857699
-0.0841228
-0.082397
-0.0805962
-0.0787246
-0.0767865
-0.0747866
-0.0727294
-0.0706201
-0.0684636
-0.0662655
-0.0640311
-0.0617662
-0.0594765
-0.0571681
-0.0548471
-0.0525196
-0.0501919
-0.0478703
-0.0942133
-0.0957067
-0.0965095
-0.0975486
-0.0985804
-0.0994774
-0.10025
-0.100913
-0.101465
-0.101905
-0.102231
-0.102443
-0.102542
-0.102527
-0.102398
-0.102156
-0.101802
-0.101335
-0.100758
-0.100071
-0.0992757
-0.0983739
-0.0973673
-0.0962583
-0.095049
-0.0937421
-0.0923404
-0.0908468
-0.0892646
-0.0875973
-0.0858485
-0.084022
-0.082122
-0.0801527
-0.0781187
-0.0760246
-0.0738753
-0.0716759
-0.0694318
-0.0671482
-0.064831
-0.0624858
-0.0601186
-0.0577354
-0.0553426
-0.0529463
-0.0505528
-0.0481687
-0.0987884
-0.100222
-0.100948
-0.101923
-0.102888
-0.103712
-0.104409
-0.104992
-0.105462
-0.105815
-0.106053
-0.106174
-0.106179
-0.106067
-0.10584
-0.105498
-0.105041
-0.104471
-0.103789
-0.102995
-0.102093
-0.101083
-0.0999685
-0.0987509
-0.097433
-0.0960177
-0.094508
-0.0929071
-0.0912183
-0.0894454
-0.0875921
-0.0856626
-0.0836611
-0.081592
-0.0794599
-0.0772697
-0.0750265
-0.0727355
-0.070402
-0.0680316
-0.0656301
-0.0632034
-0.0607576
-0.0582987
-0.0558331
-0.0533671
-0.0509072
-0.0484598
-0.103512
-0.104877
-0.105523
-0.106429
-0.107319
-0.108065
-0.108679
-0.109177
-0.109558
-0.10982
-0.109964
-0.109988
-0.109894
-0.109682
-0.109351
-0.108904
-0.108341
-0.107662
-0.10687
-0.105967
-0.104953
-0.103832
-0.102605
-0.101276
-0.0998461
-0.0983192
-0.0966985
-0.0949874
-0.0931893
-0.0913083
-0.0893483
-0.0873135
-0.0852083
-0.0830374
-0.0808055
-0.0785176
-0.076179
-0.0737948
-0.0713707
-0.0689123
-0.0664255
-0.0639163
-0.0613909
-0.0588554
-0.0563164
-0.0537801
-0.0512531
-0.0487421
-0.108374
-0.10966
-0.110227
-0.111057
-0.111866
-0.112525
-0.113051
-0.113458
-0.113745
-0.11391
-0.113954
-0.113877
-0.113679
-0.113361
-0.112923
-0.112366
-0.111691
-0.110901
-0.109996
-0.108978
-0.107849
-0.106613
-0.105271
-0.103826
-0.102281
-0.10064
-0.0989053
-0.0970814
-0.0951716
-0.0931802
-0.0911113
-0.0889693
-0.0867587
-0.0844843
-0.0821511
-0.0797641
-0.0773286
-0.0748502
-0.0723344
-0.069787
-0.0672141
-0.0646216
-0.0620159
-0.0594033
-0.0567903
-0.0541833
-0.051589
-0.0490139
-0.113362
-0.114561
-0.115049
-0.115797
-0.116517
-0.117084
-0.117515
-0.117825
-0.118012
-0.118076
-0.118015
-0.117831
-0.117525
-0.117096
-0.116545
-0.115875
-0.115085
-0.114178
-0.113155
-0.11202
-0.110773
-0.109418
-0.107957
-0.106394
-0.104731
-0.102973
-0.101122
-0.0991828
-0.0971593
-0.0950555
-0.0928758
-0.0906248
-0.0883073
-0.085928
-0.0834921
-0.0810048
-0.0784716
-0.0758979
-0.0732896
-0.0706526
-0.0679928
-0.0653166
-0.0626302
-0.0599401
-0.0572527
-0.0545748
-0.0519129
-0.0492738
-0.118463
-0.119568
-0.119978
-0.120637
-0.121261
-0.121729
-0.12206
-0.122267
-0.12235
-0.122306
-0.122136
-0.121841
-0.121421
-0.120877
-0.12021
-0.119421
-0.118512
-0.117485
-0.116342
-0.115085
-0.113716
-0.112239
-0.110657
-0.108973
-0.107189
-0.105311
-0.103342
-0.101286
-0.0991463
-0.0969284
-0.0946364
-0.092275
-0.0898492
-0.0873639
-0.0848243
-0.0822359
-0.079604
-0.0769345
-0.0742331
-0.0715059
-0.068759
-0.0659986
-0.0632313
-0.0604635
-0.0577018
-0.0549529
-0.0522235
-0.0495204
-0.123663
-0.124666
-0.125002
-0.125566
-0.126087
-0.12645
-0.126675
-0.126774
-0.126747
-0.126591
-0.126307
-0.125896
-0.125359
-0.124696
-0.123908
-0.122997
-0.121965
-0.120814
-0.119547
-0.118165
-0.116671
-0.11507
-0.113363
-0.111555
-0.109649
-0.107649
-0.105559
-0.103384
-0.101127
-0.0987934
-0.0963878
-0.0939149
-0.0913798
-0.0887876
-0.0861436
-0.0834533
-0.0807224
-0.0779565
-0.0751617
-0.0723441
-0.0695098
-0.0666653
-0.063817
-0.0609715
-0.0581355
-0.0553158
-0.0525192
-0.0497523
-0.128944
-0.129842
-0.130108
-0.130572
-0.130981
-0.131234
-0.131348
-0.131335
-0.131192
-0.13092
-0.130518
-0.129987
-0.129328
-0.128542
-0.12763
-0.126593
-0.125435
-0.124157
-0.122761
-0.121252
-0.119631
-0.117901
-0.116068
-0.114134
-0.112103
-0.109979
-0.107767
-0.105471
-0.103096
-0.100645
-0.098125
-0.0955397
-0.0928946
-0.0901948
-0.0874459
-0.0846534
-0.0818231
-0.0789607
-0.0760724
-0.0731643
-0.0702427
-0.0673141
-0.064385
-0.0614622
-0.0585522
-0.0556621
-0.0527985
-0.0499684
-0.134289
-0.13508
-0.135283
-0.13564
-0.135931
-0.136068
-0.136067
-0.135937
-0.135675
-0.135282
-0.134758
-0.134104
-0.133319
-0.132406
-0.131366
-0.130201
-0.128913
-0.127504
-0.125978
-0.124338
-0.122586
-0.120727
-0.118765
-0.116703
-0.114545
-0.112296
-0.10996
-0.107542
-0.105047
-0.102479
-0.0998431
-0.0971448
-0.0943891
-0.0915815
-0.0887275
-0.0858326
-0.0829028
-0.079944
-0.0769623
-0.073964
-0.0709554
-0.067943
-0.0649336
-0.0619337
-0.0589503
-0.0559902
-0.0530603
-0.0501675
-0.13968
-0.140364
-0.140512
-0.140757
-0.140924
-0.140941
-0.14082
-0.140569
-0.140185
-0.139668
-0.139018
-0.138236
-0.137323
-0.136279
-0.135108
-0.133811
-0.13239
-0.130848
-0.129188
-0.127415
-0.125531
-0.12354
-0.121446
-0.119254
-0.116968
-0.114593
-0.112132
-0.109591
-0.106975
-0.104289
-0.101537
-0.0987256
-0.0958593
-0.0929437
-0.0899846
-0.0869875
-0.0839585
-0.0809035
-0.0778288
-0.0747407
-0.0716455
-0.0685499
-0.0654606
-0.0623844
-0.0593282
-0.0562988
-0.0533033
-0.0503485
-0.145096
-0.14568
-0.145782
-0.145908
-0.145945
-0.145839
-0.145595
-0.145219
-0.144709
-0.144065
-0.143286
-0.142374
-0.141329
-0.140152
-0.138847
-0.137414
-0.135858
-0.13418
-0.132385
-0.130476
-0.128457
-0.126332
-0.124106
-0.121782
-0.119367
-0.116864
-0.114277
-0.111613
-0.108876
-0.106071
-0.103203
-0.100278
-0.0973012
-0.0942778
-0.0912138
-0.0881149
-0.0849871
-0.0818365
-0.0786694
-0.075492
-0.072311
-0.0691329
-0.0659646
-0.0628128
-0.0596845
-0.0565868
-0.0535265
-0.0505107
-0.150518
-0.151009
-0.151077
-0.151079
-0.150982
-0.150749
-0.15038
-0.149877
-0.149238
-0.148464
-0.147553
-0.146508
-0.145328
-0.144016
-0.142573
-0.141003
-0.139308
-0.137492
-0.135559
-0.133513
-0.131357
-0.129097
-0.126737
-0.124281
-0.121735
-0.119103
-0.116391
-0.113603
-0.110744
-0.10782
-0.104837
-0.101798
-0.0987111
-0.0955804
-0.0924121
-0.0892119
-0.085986
-0.0827405
-0.0794817
-0.076216
-0.07295
-0.0696903
-0.0664439
-0.0632175
-0.0600182
-0.056853
-0.053729
-0.0506531
-0.155923
-0.156336
-0.156382
-0.156256
-0.156021
-0.15566
-0.155163
-0.15453
-0.153761
-0.152854
-0.15181
-0.150629
-0.149312
-0.147861
-0.146279
-0.144569
-0.142734
-0.140778
-0.138704
-0.136519
-0.134225
-0.131828
-0.129333
-0.126744
-0.124066
-0.121306
-0.118467
-0.115555
-0.112575
-0.109533
-0.106434
-0.103283
-0.100086
-0.0968483
-0.0935763
-0.0902758
-0.0869527
-0.0836133
-0.0802638
-0.0769107
-0.0735608
-0.0702206
-0.0668972
-0.0635973
-0.0603281
-0.0570967
-0.05391
-0.0507753
-0.16129
-0.161644
-0.161683
-0.161424
-0.161048
-0.160558
-0.159932
-0.159169
-0.158268
-0.157227
-0.156047
-0.154728
-0.153272
-0.151681
-0.149957
-0.148104
-0.146127
-0.144028
-0.141813
-0.139487
-0.137054
-0.134519
-0.131888
-0.129165
-0.126356
-0.123466
-0.120501
-0.117466
-0.114365
-0.111205
-0.10799
-0.104727
-0.101422
-0.0980785
-0.094704
-0.0913042
-0.087885
-0.0844527
-0.0810137
-0.0775746
-0.0741419
-0.0707225
-0.0673233
-0.0639513
-0.0606134
-0.057317
-0.054069
-0.0508766
-0.166596
-0.166916
-0.166964
-0.166568
-0.16605
-0.165432
-0.164678
-0.163783
-0.162748
-0.161573
-0.160255
-0.158797
-0.157199
-0.155465
-0.153598
-0.151601
-0.149479
-0.147237
-0.144879
-0.142411
-0.139837
-0.137164
-0.134396
-0.13154
-0.128599
-0.125581
-0.122489
-0.11933
-0.11611
-0.112832
-0.109504
-0.10613
-0.102716
-0.0992686
-0.0957928
-0.0922948
-0.0887808
-0.085257
-0.0817299
-0.0782061
-0.0746921
-0.0711948
-0.0677213
-0.0642784
-0.0608734
-0.0575133
-0.0542054
-0.0509567
-0.171819
-0.172139
-0.172212
-0.171676
-0.171017
-0.170271
-0.169389
-0.168363
-0.167195
-0.165883
-0.164427
-0.162827
-0.161087
-0.159208
-0.157196
-0.155053
-0.152785
-0.150397
-0.147895
-0.145284
-0.14257
-0.139757
-0.136853
-0.133862
-0.130791
-0.127644
-0.124427
-0.121146
-0.117806
-0.114412
-0.110971
-0.107487
-0.103967
-0.100416
-0.0968404
-0.0932458
-0.0896385
-0.0860248
-0.0824111
-0.078804
-0.0752102
-0.0716367
-0.0680903
-0.0645781
-0.0611074
-0.0576852
-0.0543188
-0.0510153
-0.176937
-0.177297
-0.177413
-0.176734
-0.175935
-0.175064
-0.174056
-0.1729
-0.171598
-0.17015
-0.168554
-0.166812
-0.164927
-0.162902
-0.160743
-0.158452
-0.156037
-0.153503
-0.150856
-0.148101
-0.145245
-0.142294
-0.139253
-0.136129
-0.132927
-0.129652
-0.126311
-0.122908
-0.11945
-0.115942
-0.112389
-0.108797
-0.105172
-0.101519
-0.0978453
-0.0941557
-0.0904567
-0.0867547
-0.083056
-0.0793674
-0.0756955
-0.0720473
-0.0684298
-0.06485
-0.0613151
-0.0578324
-0.0544091
-0.0510524
-0.181929
-0.182376
-0.182554
-0.181731
-0.180795
-0.179804
-0.178671
-0.177386
-0.175951
-0.174366
-0.17263
-0.170744
-0.168713
-0.166541
-0.164232
-0.161793
-0.15923
-0.156548
-0.153755
-0.150857
-0.147859
-0.144769
-0.141593
-0.138335
-0.135003
-0.131602
-0.128137
-0.124615
-0.12104
-0.117418
-0.113755
-0.110057
-0.106329
-0.102576
-0.0988058
-0.095023
-0.0912342
-0.0874456
-0.0836639
-0.0798955
-0.0761474
-0.0724263
-0.0687393
-0.0650935
-0.0614962
-0.0579547
-0.0544761
-0.0510677
-0.186773
-0.187365
-0.187623
-0.186656
-0.185589
-0.184482
-0.183228
-0.181815
-0.180248
-0.178526
-0.176648
-0.174618
-0.17244
-0.170118
-0.167659
-0.16507
-0.162357
-0.159528
-0.156588
-0.153546
-0.150407
-0.147179
-0.143867
-0.140478
-0.137017
-0.13349
-0.129904
-0.126263
-0.122573
-0.11884
-0.115069
-0.111266
-0.107436
-0.103586
-0.0997208
-0.0958468
-0.0919701
-0.088097
-0.0842341
-0.0803879
-0.0765653
-0.0727731
-0.0690186
-0.0653087
-0.0616508
-0.0580521
-0.05452
-0.0510616
-0.191448
-0.192252
-0.19261
-0.191499
-0.190308
-0.189091
-0.187719
-0.186181
-0.184483
-0.182623
-0.180604
-0.178427
-0.1761
-0.173628
-0.171018
-0.168277
-0.165414
-0.162436
-0.15935
-0.156164
-0.152885
-0.149519
-0.146073
-0.142553
-0.138965
-0.135314
-0.131608
-0.12785
-0.124048
-0.120205
-0.116328
-0.112422
-0.108493
-0.104547
-0.10059
-0.0966263
-0.0926638
-0.0887082
-0.0847661
-0.0808441
-0.076949
-0.0730878
-0.0692676
-0.0654955
-0.0617788
-0.0581248
-0.0545408
-0.0510342
-0.195936
-0.197027
-0.197506
-0.196252
-0.194946
-0.193627
-0.192141
-0.190479
-0.188651
-0.186654
-0.184491
-0.182167
-0.17969
-0.177065
-0.174303
-0.17141
-0.168396
-0.165269
-0.162037
-0.158708
-0.155289
-0.151786
-0.148207
-0.144558
-0.140844
-0.137072
-0.133248
-0.129376
-0.125462
-0.121512
-0.117531
-0.113525
-0.109499
-0.105459
-0.101411
-0.0973611
-0.0933149
-0.089279
-0.0852599
-0.0812641
-0.0772987
-0.0733704
-0.0694864
-0.065654
-0.0618804
-0.058173
-0.054539
-0.0509859
-0.200218
-0.201684
-0.202301
-0.200909
-0.199499
-0.198085
-0.196489
-0.194707
-0.192749
-0.190614
-0.188307
-0.185834
-0.183204
-0.180426
-0.17751
-0.174464
-0.171299
-0.168024
-0.164646
-0.161174
-0.157616
-0.153978
-0.150268
-0.146491
-0.142654
-0.138762
-0.134821
-0.130837
-0.126815
-0.12276
-0.118678
-0.114573
-0.110453
-0.106322
-0.102186
-0.098051
-0.0939234
-0.0898094
-0.0857154
-0.0816481
-0.0776143
-0.073621
-0.0696754
-0.0657846
-0.0619561
-0.058197
-0.0545149
-0.050917
-0.204275
-0.206215
-0.206992
-0.205466
-0.203965
-0.202464
-0.200763
-0.198862
-0.196773
-0.1945
-0.192047
-0.189423
-0.186639
-0.183706
-0.180635
-0.177436
-0.174119
-0.170695
-0.167172
-0.163559
-0.159864
-0.156092
-0.152253
-0.14835
-0.144392
-0.140383
-0.136328
-0.132234
-0.128106
-0.123948
-0.119767
-0.115567
-0.111355
-0.107135
-0.102913
-0.0986959
-0.0944893
-0.0902994
-0.0861329
-0.0819962
-0.0778963
-0.0738401
-0.0698349
-0.0658878
-0.0620062
-0.0581975
-0.054469
-0.0508282
-0.208091
-0.210618
-0.211573
-0.209921
-0.208343
-0.206764
-0.204961
-0.202942
-0.200724
-0.19831
-0.195708
-0.192931
-0.189992
-0.186902
-0.183675
-0.180321
-0.176854
-0.173282
-0.169615
-0.165861
-0.16203
-0.158127
-0.15416
-0.150135
-0.146057
-0.141933
-0.137768
-0.133566
-0.129334
-0.125077
-0.120799
-0.116506
-0.112204
-0.107898
-0.103593
-0.0992963
-0.095013
-0.0907496
-0.0865127
-0.0823089
-0.0781451
-0.0740282
-0.0699654
-0.065964
-0.0620314
-0.0581749
-0.054402
-0.05072
-0.211651
-0.21489
-0.216044
-0.214274
-0.212634
-0.210986
-0.209084
-0.206949
-0.204599
-0.202041
-0.199289
-0.196356
-0.193258
-0.19001
-0.186626
-0.183118
-0.179499
-0.17578
-0.17197
-0.168079
-0.164113
-0.160081
-0.155989
-0.151843
-0.147649
-0.143413
-0.139139
-0.134833
-0.130501
-0.126146
-0.121774
-0.117391
-0.113002
-0.108612
-0.104227
-0.0998525
-0.095495
-0.0911605
-0.0868557
-0.082587
-0.0783614
-0.0741859
-0.0700677
-0.066014
-0.0620323
-0.05813
-0.0543144
-0.0505931
-0.21494
-0.219032
-0.220404
-0.218528
-0.216845
-0.215134
-0.213135
-0.210882
-0.208398
-0.205694
-0.202787
-0.199695
-0.196437
-0.193029
-0.189486
-0.185824
-0.182055
-0.178189
-0.174238
-0.17021
-0.166112
-0.161953
-0.157739
-0.153475
-0.149168
-0.144822
-0.140443
-0.136035
-0.131605
-0.127155
-0.122693
-0.118222
-0.113749
-0.109278
-0.104815
-0.100365
-0.095936
-0.0915329
-0.0871624
-0.0828311
-0.078546
-0.0743141
-0.0701425
-0.0660386
-0.0620098
-0.0580635
-0.0542072
-0.0504482
-0.217943
-0.223049
-0.224658
-0.22269
-0.22098
-0.219213
-0.217118
-0.214744
-0.212121
-0.209266
-0.2062
-0.202946
-0.199525
-0.195955
-0.192254
-0.188437
-0.184518
-0.180507
-0.176416
-0.172254
-0.168027
-0.163744
-0.15941
-0.155031
-0.150613
-0.14616
-0.141679
-0.137173
-0.132647
-0.128106
-0.123556
-0.119
-0.114445
-0.109896
-0.105357
-0.100836
-0.096337
-0.0918676
-0.0874337
-0.0830422
-0.0786998
-0.0744136
-0.0701907
-0.0660386
-0.0619647
-0.0579763
-0.054081
-0.0502862
-0.220646
-0.226947
-0.228814
-0.226769
-0.22505
-0.22323
-0.221036
-0.218537
-0.21577
-0.212758
-0.209528
-0.206107
-0.20252
-0.198787
-0.194926
-0.190955
-0.186887
-0.182734
-0.178505
-0.17421
-0.169857
-0.165452
-0.161001
-0.156511
-0.151985
-0.147429
-0.142848
-0.138246
-0.133629
-0.129
-0.124364
-0.119726
-0.115092
-0.110467
-0.105856
-0.101264
-0.096699
-0.0921656
-0.0876708
-0.0832212
-0.0788237
-0.0744853
-0.0702133
-0.066015
-0.0618978
-0.0578693
-0.0539369
-0.050108
-0.223037
-0.230738
-0.232884
-0.230779
-0.229068
-0.227195
-0.224897
-0.222265
-0.219345
-0.216169
-0.212769
-0.209177
-0.205421
-0.201523
-0.197503
-0.193378
-0.189163
-0.184868
-0.180504
-0.17608
-0.171603
-0.167079
-0.162515
-0.157915
-0.153285
-0.148629
-0.143952
-0.139258
-0.134551
-0.129836
-0.125118
-0.120401
-0.115691
-0.110993
-0.106311
-0.101653
-0.097023
-0.0924282
-0.0878748
-0.0833694
-0.0789189
-0.0745305
-0.0702113
-0.0659688
-0.0618103
-0.0577434
-0.0537756
-0.0499143
-0.225104
-0.23444
-0.236886
-0.23474
-0.233048
-0.231119
-0.228706
-0.225931
-0.222848
-0.219498
-0.215922
-0.212155
-0.208226
-0.204162
-0.199983
-0.195705
-0.191343
-0.186909
-0.182413
-0.177862
-0.173264
-0.168626
-0.163951
-0.159246
-0.154515
-0.149762
-0.144991
-0.140208
-0.135415
-0.130618
-0.12582
-0.121027
-0.116243
-0.111475
-0.106726
-0.102002
-0.0973105
-0.0926566
-0.0880467
-0.0834878
-0.0789865
-0.0745501
-0.0701858
-0.0659009
-0.061703
-0.0575996
-0.0535982
-0.0497062
-0.226837
-0.238078
-0.240843
-0.238675
-0.237011
-0.235013
-0.232471
-0.229537
-0.226279
-0.222746
-0.218985
-0.215038
-0.210935
-0.206704
-0.202365
-0.197935
-0.19343
-0.188859
)
;

boundaryField
{
    inlet
    {
        type            zeroGradient;
    }
    outlet
    {
        type            fixedValue;
        value           nonuniform 0();
    }
    cylinder
    {
        type            zeroGradient;
    }
    top
    {
        type            symmetryPlane;
    }
    bottom
    {
        type            symmetryPlane;
    }
    defaultFaces
    {
        type            empty;
    }
    procBoundary2to1
    {
        type            processor;
        value           nonuniform List<scalar> 
42
(
-0.0387318
-0.0387318
-0.0378871
-0.0384367
-0.0392318
-0.0402531
-0.0414933
-0.042943
-0.0445956
-0.0464451
-0.0484868
-0.0507168
-0.0531317
-0.0557291
-0.0585068
-0.0614633
-0.0645973
-0.0679077
-0.0713934
-0.0750535
-0.078887
-0.0828924
-0.0870683
-0.0914123
-0.095922
-0.100594
-0.105424
-0.110407
-0.115537
-0.120807
-0.126209
-0.131733
-0.137371
-0.143109
-0.148936
-0.154839
-0.160803
-0.166813
-0.172854
-0.17891
-0.184963
-0.190996
)
;
    }
    procBoundary2to3
    {
        type            processor;
        value           nonuniform List<scalar> 
50
(
-0.0419013
-0.0419344
-0.0419984
-0.0420909
-0.0422092
-0.0423509
-0.0425137
-0.0426952
-0.0428931
-0.0431051
-0.0433292
-0.0435632
-0.043805
-0.0440528
-0.0443046
-0.0445586
-0.044813
-0.045066
-0.0453159
-0.0455612
-0.0458002
-0.0460314
-0.0462534
-0.0464647
-0.0466641
-0.0468503
-0.0470221
-0.0471786
-0.0473186
-0.0474415
-0.0475463
-0.0476325
-0.0476995
-0.0477469
-0.0477745
-0.047782
-0.0477694
-0.0477368
-0.0476843
-0.0476121
-0.0475208
-0.0474106
-0.0472822
-0.0471361
-0.0469731
-0.0467939
-0.0465992
-0.0463899
-0.0461668
-0.0459309
)
;
    }
    procBoundary2to5
    {
        type            processor;
        value           nonuniform List<scalar> 
12
(
-0.196993
-0.202934