/*--------------------------------*- C++ -*----------------------------------*\
  =========                 |
  \\      /  F ield         | OpenFOAM: The Open Source CFD Toolbox
   \\    /   O peration     | Website:  https://openfoam.org
    \\  /    A nd           | Version:  7
     \\/     M anipulation  |
\*---------------------------------------------------------------------------*/
FoamFile
{
    version     2.0;
    format      ascii;
    class       surfaceScalarField;
    location    "5";
    object      phi;
}
// * * * * * * * * * * * * * * * * * * * * * * * * * * * * * * * * * * * * * //

dimensions      [0 3 -1 0 0 0 0];

internalField   nonuniform List<scalar> 
5145
(
0.0107612
-8.07676e-05
0.0108434
-8.21967e-05
-8.35844e-05
0.010927
0.0104361
-0.000156778
0.010515
-0.000159675
0.0105953
-0.000162499
-0.000165239
0.010677
0.0102008
-0.000232534
0.0102779
-0.000236829
0.0103564
-0.000241014
-0.000245075
0.0104363
0.00997377
-0.000306668
0.0100493
-0.000312329
0.0101261
-0.000317846
-0.000323198
0.0102042
0.00975463
-0.000379272
0.00982857
-0.00038627
0.00990381
-0.000393089
-0.000399704
0.00998032
0.00954284
-0.00045043
0.0096153
-0.000458735
0.00968904
-0.000466829
-0.000474679
0.00976402
0.00933793
-0.000520217
0.009409
-0.000529803
0.00948132
-0.000539145
-0.000548204
0.00955484
0.00913949
-0.000588702
0.00920922
-0.000599542
0.00928019
-0.000610105
-0.000620349
0.00935233
0.00894711
-0.000655943
0.00901558
-0.00066801
0.00908524
-0.000679772
-0.000691174
0.00915607
0.00876043
-0.000721993
0.00882768
-0.000735262
0.0088961
-0.000748196
-0.000760732
0.00896566
0.00857911
-0.000786895
0.00864518
-0.00080134
0.00871241
-0.000815422
-0.000829067
0.00878074
0.00840282
-0.000850684
0.00846776
-0.00086628
0.00853383
-0.000881484
-0.000896215
0.00860097
0.00823128
-0.000913388
0.0082951
-0.000930108
0.00836003
-0.000946409
-0.000962198
0.00842601
0.00806418
-0.000975026
0.00812691
-0.000992842
0.00819071
-0.00101021
-0.00102704
0.00825555
0.00790124
-0.00103561
0.00796289
-0.00105449
0.00802558
-0.0010729
-0.00109073
0.00808928
0.00774221
-0.00109514
0.00780277
-0.00111505
0.00786434
-0.00113448
-0.00115328
0.00792689
0.0075868
-0.0011536
0.00764627
-0.00117452
0.00770672
-0.00119492
-0.00121467
0.0077681
0.00743478
-0.00121099
0.00749313
-0.00123287
0.00755242
-0.00125421
-0.00127487
0.00761262
0.00728588
-0.00126727
0.00734308
-0.00129008
0.00740119
-0.00131232
-0.00133385
0.00746017
0.00713985
-0.00132242
0.00719587
-0.0013461
0.00725274
-0.00136919
-0.00139156
0.00731045
0.00699645
-0.00137637
0.00705123
-0.00140088
0.00710682
-0.00142479
-0.00144794
0.0071632
0.00685544
-0.00142908
0.00690892
-0.00145436
0.00696316
-0.00147903
-0.00150292
0.00701815
0.00671658
-0.00148048
0.0067687
-0.00150648
0.00682152
-0.00153184
-0.00155643
0.00687502
0.00657965
-0.0015305
0.00663033
-0.00155716
0.00668164
-0.00158315
-0.00160837
0.00673358
0.00644442
-0.00157907
0.00649357
-0.00160631
0.00654329
-0.00163287
-0.00165865
0.00659358
0.00631069
-0.00162609
0.00635823
-0.00165384
0.00640625
-0.0016809
-0.00170718
0.00645478
0.00617826
-0.00167148
0.00622408
-0.00169967
0.00627032
-0.00172713
-0.00175385
0.00631698
0.00604694
-0.00171514
0.00609096
-0.00174368
0.0061353
-0.00177148
-0.00179854
0.00618
0.00591658
-0.00175698
0.00595868
-0.00178578
0.00600103
-0.00181382
-0.00184117
0.00604365
0.00578701
-0.0017969
0.00582711
-0.00182588
0.00586736
-0.00185407
-0.00188161
0.0059078
0.00565812
-0.00183482
0.00569612
-0.00186388
0.00573417
-0.00189213
-0.00191976
0.00577233
0.0055298
-0.00187063
0.0055656
-0.00189968
0.00560136
-0.00192789
-0.00195553
0.00563714
0.00540196
-0.00190426
0.00543548
-0.0019332
0.00546887
-0.00196127
-0.00198883
0.00550216
0.00527455
-0.00193562
0.00530571
-0.00196435
0.00533663
-0.00199219
-0.00201957
0.00536737
0.00514752
-0.00196465
0.00517625
-0.00199308
0.00520464
-0.00202058
-0.00204768
0.00523275
0.00502086
-0.00199128
0.00504709
-0.00201932
0.00507288
-0.00204637
-0.0020731
0.0050983
0.00489457
-0.00201546
0.00491825
-0.002043
0.0049414
-0.00206952
-0.00209577
0.00496407
0.00476867
-0.00203715
0.00478977
-0.0020641
0.00481023
-0.00208998
-0.00211566
0.00483012
0.00464321
-0.00205631
0.00466169
-0.00208259
0.00467944
-0.00210773
-0.00213273
0.00469651
0.00451824
-0.00207292
0.00453409
-0.00209844
0.00454911
-0.00212275
-0.00214697
0.00456335
0.00439385
-0.00208698
0.00440705
-0.00211164
0.00441934
-0.00213504
-0.00215837
0.00443074
0.0042701
-0.00209847
0.00428066
-0.00212221
0.00429022
-0.00214459
-0.00216694
0.00429879
0.00414709
-0.00210742
0.00415503
-0.00213015
0.00416187
-0.00215144
-0.0021727
0.00416763
0.00402492
-0.00211383
0.00403025
-0.00213548
0.00403441
-0.00215559
-0.00217567
0.00403738
0.00390369
-0.00211775
0.00390645
-0.00213824
0.00390796
-0.0021571
-0.00217588
0.00390817
0.00378351
-0.00211919
0.00378374
-0.00213847
0.00378264
-0.00215599
-0.00217338
0.00378013
0.00366448
-0.00211821
0.00366223
-0.00213622
0.00365856
-0.00215233
-0.0021682
0.00365338
0.0035467
-0.00211486
0.00354201
-0.00213153
0.00353584
-0.00214615
-0.0021604
0.00352803
0.00343027
-0.00210918
0.0034232
-0.00212446
0.00341457
-0.00213752
-0.00215002
0.0034042
0.00331527
-0.00210123
0.00330589
-0.00211508
0.00329487
-0.00212651
-0.00213712
0.00328197
0.00320179
-0.00209107
0.00319015
-0.00210344
0.0031768
-0.00211316
0.00316142
0.00308989
-0.00207876
0.00307606
0.0109374
-1.04525e-05
0.0109475
-1.00387e-05
0.0109571
-9.60085e-06
0.0109662
-9.13714e-06
0.0109749
-8.64665e-06
0.010983
-8.12917e-06
0.0109906
-7.58452e-06
0.0109976
-7.01244e-06
0.011004
-6.41267e-06
0.0110098
-5.78496e-06
0.0110149
-5.12912e-06
0.0110194
-4.44498e-06
0.0110231
-3.73238e-06
0.0110261
-2.99123e-06
0.0110283
-2.22146e-06
0.0110297
-1.42306e-06
0.0110303
-5.96072e-07
0.0110301
2.59421e-07
0.0110289
1.14326e-06
0.0110269
2.05524e-06
0.0110239
2.99506e-06
0.0110199
3.96235e-06
0.011015
4.95666e-06
0.011009
5.97743e-06
0.011002
7.02402e-06
0.0109939
8.09566e-06
0.0109847
9.19145e-06
0.0109744
1.03104e-05
0.0109629
1.14513e-05
0.0109503
1.26129e-05
0.0109365
1.37937e-05
0.0109215
1.49921e-05
0.0109053
1.62061e-05
0.0108879
1.74339e-05
0.0108692
1.86732e-05
0.0108493
1.99215e-05
0.0108281
2.11762e-05
0.0108057
2.24344e-05
0.010782
2.3693e-05
0.010757
2.49487e-05
0.0107308
2.61978e-05
0.0107034
2.74367e-05
0.0106747
2.86611e-05
0.0106449
2.98669e-05
0.0106138
3.10496e-05
0.0105816
3.22043e-05
0.0105483
3.33263e-05
3.44102e-05
0.0106872
-2.06877e-05
0.010697
-1.986e-05
0.0107064
-1.89863e-05
0.0107154
-1.80625e-05
0.0107238
-1.70865e-05
0.0107317
-1.60578e-05
0.0107391
-1.49759e-05
0.0107459
-1.384e-05
0.0107522
-1.26497e-05
0.0107578
-1.14043e-05
0.0107628
-1.01035e-05
0.0107671
-8.7469e-06
0.0107707
-7.33413e-06
0.0107735
-5.86503e-06
0.0107757
-4.33946e-06
0.010777
-2.7574e-06
0.0107775
-1.11891e-06
0.0107772
5.7582e-07
0.010776
2.32649e-06
0.0107739
4.13267e-06
0.0107709
5.99379e-06
0.010767
7.90909e-06
0.0107621
9.87768e-06
0.0107562
1.18985e-05
0.0107492
1.39702e-05
0.0107412
1.60912e-05
0.0107321
1.82599e-05
0.010722
2.04742e-05
0.0107107
2.27319e-05
0.0106983
2.50302e-05
0.0106847
2.73664e-05
0.01067
2.97371e-05
0.010654
3.21387e-05
0.0106369
3.45672e-05
0.0106186
3.70183e-05
0.010599
3.94871e-05
0.0105782
4.19684e-05
0.0105562
4.44565e-05
0.0105329
4.69451e-05
0.0105084
4.94278e-05
0.0104827
5.18975e-05
0.0104558
5.43465e-05
0.0104277
5.6767e-05
0.0103984
5.91504e-05
0.010368
6.14877e-05
0.0103364
6.37698e-05
0.0103038
6.59867e-05
6.81284e-05
0.0104463
-3.06947e-05
0.0104559
-2.94551e-05
0.010465
-2.81478e-05
0.0104737
-2.67666e-05
0.010482
-2.53084e-05
0.0104897
-2.37722e-05
0.0104968
-2.21573e-05
0.0105035
-2.04628e-05
0.0105095
-1.86876e-05
0.0105149
-1.68311e-05
0.0105197
-1.48926e-05
0.0105238
-1.28715e-05
0.0105273
-1.07673e-05
0.01053
-8.57979e-06
0.010532
-6.30875e-06
0.0105332
-3.95414e-06
0.0105336
-1.51608e-06
0.0105331
1.00515e-06
0.0105318
3.60909e-06
0.0105297
6.29509e-06
0.0105266
9.06228e-06
0.0105226
1.19096e-05
0.0105177
1.48356e-05
0.0105117
1.78387e-05
0.0105048
2.09169e-05
0.0104968
2.40681e-05
0.0104878
2.72896e-05
0.0104777
3.05784e-05
0.0104665
3.3931e-05
0.0104541
3.73437e-05
0.0104407
4.0812e-05
0.0104261
4.43313e-05
0.0104104
4.7896e-05
0.0103934
5.15002e-05
0.0103753
5.51375e-05
0.010356
5.88006e-05
0.0103355
6.24819e-05
0.0103138
6.61728e-05
0.0102908
6.98642e-05
0.0102667
7.35463e-05
0.0102414
7.72086e-05
0.0102149
8.084e-05
0.0101873
8.44284e-05
0.0101584
8.79615e-05
0.0101285
9.14259e-05
0.0100975
9.48077e-05
0.0100654
9.80926e-05
0.000101265
0.010214
-4.04678e-05
0.0102234
-3.88168e-05
0.0102323
-3.70765e-05
0.0102408
-3.52386e-05
0.0102487
-3.32991e-05
0.0102562
-3.12568e-05
0.0102632
-2.91109e-05
0.0102696
-2.68601e-05
0.0102754
-2.45032e-05
0.0102806
-2.20392e-05
0.0102852
-1.94672e-05
0.0102891
-1.67866e-05
0.0102923
-1.39967e-05
0.0102948
-1.10973e-05
0.0102966
-8.08802e-06
0.0102976
-4.96895e-06
0.0102979
-1.74022e-06
0.0102973
1.59777e-06
0.0102958
5.04438e-06
0.0102935
8.59872e-06
0.0102903
1.22596e-05
0.0102862
1.60256e-05
0.0102812
1.98949e-05
0.0102751
2.38652e-05
0.0102681
2.79341e-05
0.0102601
3.20986e-05
0.010251
3.63551e-05
0.0102409
4.06997e-05
0.0102297
4.51278e-05
0.0102174
4.96345e-05
0.010204
5.42139e-05
0.0101895
5.88597e-05
0.0101738
6.35648e-05
0.010157
6.83213e-05
0.010139
7.31207e-05
0.0101199
7.79534e-05
0.0100995
8.28092e-05
0.010078
8.76771e-05
0.0100553
9.25448e-05
0.0100315
9.73996e-05
0.0100065
0.000102228
0.00998029
0.000107014
0.00995298
0.000111743
0.00992454
0.000116398
0.00989501
0.000120962
0.0098644
0.000125416
0.00983275
0.000129741
0.000133918
0.00998985
-5.00026e-05
0.00999897
-4.79384e-05
0.0100077
-4.57634e-05
0.0100159
-4.34673e-05
0.0100236
-4.10453e-05
0.0100309
-3.84962e-05
0.0100376
-3.58189e-05
0.0100437
-3.30118e-05
0.0100493
-3.00737e-05
0.0100543
-2.70032e-05
0.0100586
-2.37996e-05
0.0100623
-2.04618e-05
0.0100653
-1.69894e-05
0.0100676
-1.33819e-05
0.0100691
-9.63914e-06
0.0100699
-5.76107e-06
0.0100699
-1.74798e-06
0.0100691
2.39958e-06
0.0100675
6.68077e-06
0.010065
1.10945e-05
0.0100616
1.56392e-05
0.0100573
2.0313e-05
0.0100521
2.51137e-05
0.0100459
3.00385e-05
0.0100388
3.50843e-05
0.0100306
4.02472e-05
0.0100214
4.5523e-05
0.0100112
5.09068e-05
0.00999997
5.63929e-05
0.00998763
6.1975e-05
0.0099742
6.7646e-05
0.00995966
7.33979e-05
0.009944
7.92221e-05
0.00992722
8.51088e-05
0.00990929
9.10473e-05
0.00989022
9.7026e-05
0.00986999
0.000103032
0.00984862
0.000109052
0.00982609
0.00011507
0.00980242
0.000121072
0.00977761
0.000127039
0.00975167
0.000132953
0.00972462
0.000138795
0.00969647
0.000144545
0.00966725
0.00015018
0.00963699
0.000155679
0.00960572
0.000161017
0.00016617
0.00977331
-5.92966e-05
0.00978219
-5.68148e-05
0.00979063
-5.42009e-05
0.0097986
-5.14428e-05
0.00980609
-4.85348e-05
0.00981307
-4.54757e-05
0.00981952
-4.22641e-05
0.0098254
-3.88985e-05
0.00983071
-3.53773e-05
0.0098354
-3.16993e-05
0.00983947
-2.78634e-05
0.00984287
-2.38686e-05
0.0098456
-1.97145e-05
0.00984762
-1.54005e-05
0.0098489
-1.09265e-05
0.00984944
-6.29267e-06
0.00984919
-1.4993e-06
0.00984813
3.45285e-06
0.00984625
8.56273e-06
0.00984352
1.38289e-05
0.00983991
1.92496e-05
0.0098354
2.48224e-05
0.00982997
3.05447e-05
0.00982359
3.64131e-05
0.00981625
4.24238e-05
0.00980793
4.85723e-05
0.0097986
5.48534e-05
0.00978824
6.12612e-05
0.00977685
6.77891e-05
0.00976439
7.44295e-05
0.00975086
8.11739e-05
0.00973625
8.8013e-05
0.00972054
9.49362e-05
0.00970371
0.000101932
0.00968577
0.000108988
0.00966671
0.00011609
0.00964652
0.000123222
0.0096252
0.00013037
0.00960276
0.000137514
0.00957919
0.000144636
0.00955451
0.000151716
0.00952874
0.000158731
0.00950187
0.000165659
0.00947394
0.000172476
0.00944497
0.000179155
0.00941497
0.00018567
0.009384
0.000191992
0.000198093
0.00956389
-6.83473e-05
0.00957252
-6.5441e-05
0.0095807
-6.23819e-05
0.00958841
-5.91554e-05
0.00959563
-5.57555e-05
0.00960234
-5.21808e-05
0.0096085
-4.843e-05
0.00961411
-4.45013e-05
0.00961912
-4.03932e-05
0.00962353
-3.61042e-05
0.0096273
-3.16333e-05
0.00963041
-2.69796e-05
0.00963284
-2.21425e-05
0.00963456
-1.71215e-05
0.00963555
-1.19167e-05
0.00963578
-6.52827e-06
0.00963524
-9.56739e-07
0.0096339
4.79692e-06
0.00963173
1.07314e-05
0.00962871
1.6845e-05
0.00962482
2.31356e-05
0.00962005
2.96003e-05
0.00961436
3.62359e-05
0.00960773
4.30386e-05
0.00960015
5.00038e-05
0.0095916
5.71263e-05
0.00958205
6.44001e-05
0.00957149
7.18183e-05
0.00955991
7.93731e-05
0.00954728
8.70558e-05
0.0095336
9.48566e-05
0.00951885
0.000102765
0.00950302
0.000110768
0.0094861
0.000118852
0.00946808
0.000127004
0.00944896
0.000135207
0.00942874
0.000143443
0.00940742
0.000151694
0.00938499
0.000159939
0.00936147
0.000168157
0.00933686
0.000176323
0.00931118
0.000184412
0.00928444
0.000192399
0.00925667
0.000200255
0.00922787
0.000207949
0.00919809
0.000215451
0.00916735
0.000222729
0.000229749
0.00936113
-7.7151e-05
0.0093695
-7.38114e-05
0.00937742
-7.02981e-05
0.00938486
-6.65949e-05
0.0093918
-6.26949e-05
0.00939822
-5.8597e-05
0.00940409
-5.42998e-05
0.00940939
-4.98016e-05
0.00941409
-4.51005e-05
0.00941818
-4.01952e-05
0.00942164
-3.50847e-05
0.00942442
-2.97681e-05
0.00942653
-2.42449e-05
0.00942792
-1.85147e-05
0.00942858
-1.25777e-05
0.00942849
-6.43417e-06
0.00942761
-8.4916e-08
0.00942594
6.46877e-06
0.00942345
1.32254e-05
0.00942011
2.0183e-05
0.00941591
2.73387e-05
0.00941082
3.46896e-05
0.00940482
4.22317e-05
0.0093979
4.99606e-05
0.00939003
5.78712e-05
0.0093812
6.59574e-05
0.00937139
7.42122e-05
0.00936058
8.2628e-05
0.00934876
9.11958e-05
0.00933591
9.99056e-05
0.00932202
0.000108746
0.00930708
0.000117706
0.00929107
0.00012677
0.009274
0.000135924
0.00925586
0.000145151
0.00923663
0.000154432
0.00921632
0.000163749
0.00919494
0.00017308
0.00917248
0.000182401
0.00914895
0.000191688
0.00912435
0.000200914
0.00909872
0.000210051
0.00907205
0.000219068
0.00904437
0.000227934
0.0090157
0.000236615
0.00898608
0.000245076
0.00895553
0.000253279
0.000261187
0.00916462
-8.57023e-05
0.00917273
-8.19181e-05
0.00918037
-7.79399e-05
0.00918752
-7.37494e-05
0.00919417
-6.93394e-05
0.00920028
-6.47087e-05
0.00920583
-5.98562e-05
0.00921081
-5.47798e-05
0.00921519
-4.9478e-05
0.00921894
-4.39494e-05
0.00922205
-3.81929e-05
0.00922449
-3.22079e-05
0.00922624
-2.59938e-05
0.00922728
-1.95506e-05
0.00922758
-1.28784e-05
0.00922712
-5.97789e-06
0.00922589
1.14995e-06
0.00922385
8.50363e-06
0.009221
1.60813e-05
0.0092173
2.38804e-05
0.00921274
3.18979e-05
0.0092073
4.01303e-05
0.00920096
4.85731e-05
0.0091937
5.72212e-05
0.0091855
6.60688e-05
0.00917635
7.5109e-05
0.00916623
8.43342e-05
0.00915512
9.37354e-05
0.00914301
0.000103303
0.00912989
0.000113025
0.00911575
0.00012289
0.00910057
0.000132884
0.00908435
0.00014299
0.00906708
0.000153194
0.00904875
0.000163475
0.00902937
0.000173814
0.00900893
0.000184188
0.00898744
0.000194575
0.00896489
0.000204947
0.0089413
0.000215277
0.00891668
0.000225536
0.00889104
0.000235692
0.0088644
0.000245712
0.00883677
0.000255559
0.00880819
0.000265197
0.00877868
0.000274585
0.00874828
0.000283684
0.00029245
0.00897395
-9.39929e-05
0.00898178
-8.97512e-05
0.00898914
-8.52954e-05
0.008996
-8.06052e-05
0.00900233
-7.56733e-05
0.00900812
-7.04986e-05
0.00901334
-6.50799e-05
0.00901798
-5.94154e-05
0.009022
-5.35035e-05
0.0090254
-4.73429e-05
0.00902814
-4.09327e-05
0.0090302
-3.42723e-05
0.00903157
-2.73613e-05
0.00903222
-2.01998e-05
0.00903213
-1.27884e-05
0.00903128
-5.12777e-06
0.00902965
2.78073e-06
0.00902722
1.09353e-05
0.00902396
1.93337e-05
0.00901987
2.7973e-05
0.00901492
3.68498e-05
0.00900909
4.59598e-05
0.00900236
5.52982e-05
0.00899473
6.48591e-05
0.00898616
7.4636e-05
0.00897665
8.46213e-05
0.00896618
9.48063e-05
0.00895473
0.000105181
0.0089423
0.000115735
0.00892887
0.000126456
0.00891443
0.000137329
0.00889897
0.000148339
0.00888249
0.000159471
0.00886498
0.000170704
0.00884644
0.000182018
0.00882686
0.000193392
0.00880625
0.000204801
0.00878461
0.000216218
0.00876194
0.000227615
0.00873825
0.000238963
0.00871356
0.000250227
0.00868788
0.000261374
0.00866122
0.000272366
0.00863362
0.000283165
0.00860509
0.000293728
0.00857566
0.000304013
0.00854537
0.000313975
0.000323566
0.00878876
-0.000102011
0.00879631
-9.72974e-05
0.00880336
-9.23496e-05
0.0088099
-8.71459e-05
0.00881591
-8.16786e-05
0.00882136
-7.59471e-05
0.00882623
-6.99501e-05
0.0088305
-6.36861e-05
0.00883415
-5.71534e-05
0.00883716
-5.03509e-05
0.0088395
-4.32779e-05
0.00884116
-3.59339e-05
0.00884212
-2.83189e-05
0.00884235
-2.04331e-05
0.00884184
-1.22773e-05
0.00884057
-3.85253e-06
0.00883851
4.83951e-06
0.00883565
1.37967e-05
0.00883197
2.30164e-05
0.00882744
3.24952e-05
0.00882206
4.22291e-05
0.00881581
5.22134e-05
0.00880867
6.24427e-05
0.00880061
7.29103e-05
0.00879164
8.36092e-05
0.00878173
9.45306e-05
0.00877087
0.000105665
0.00875905
0.000117002
0.00874626
0.000128529
0.00873248
0.000140233
0.00871771
0.000152099
0.00870194
0.000164109
0.00868516
0.000176246
0.00866738
0.000188489
0.00864858
0.000200815
0.00862877
0.000213201
0.00860796
0.000225619
0.00858613
0.000238043
0.00856331
0.000250439
0.00853949
0.000262776
0.0085147
0.000275017
0.00848895
0.000287125
0.00846226
0.000299059
0.00843465
0.000310778
0.00840614
0.000322235
0.00837677
0.000333384
0.00834657
0.000344176
0.000354559
0.0086087
-0.000109742
0.00861595
-0.00010454
0.00862268
-9.90846e-05
0.00862889
-9.33519e-05
0.00863454
-8.73345e-05
0.00863963
-8.1032e-05
0.00864412
-7.44434e-05
0.008648
-6.75672e-05
0.00865125
-6.04019e-05
0.00865385
-5.29467e-05
0.00865577
-4.5201e-05
0.008657
-3.71645e-05
0.00865752
-2.88375e-05
0.00865731
-2.02205e-05
0.00865634
-1.13146e-05
0.00865461
-2.12109e-06
0.00865209
7.3579e-06
0.00864877
1.71199e-05
0.00864463
2.71616e-05
0.00863964
3.74794e-05
0.0086338
4.80687e-05
0.00862709
5.89242e-05
0.00861949
7.00397e-05
0.008611
8.14082e-05
0.00860158
9.30214e-05
0.00859124
0.00010487
0.00857997
0.000116944
0.00856774
0.000129231
0.00855455
0.000141718
0.00854039
0.00015439
0.00852526
0.000167232
0.00850914
0.000180224
0.00849204
0.000193346
0.00847395
0.000206578
0.00845488
0.000219894
0.00843481
0.000233268
0.00841376
0.000246672
0.00839172
0.000260074
0.00836872
0.000273442
0.00834476
0.000286739
0.00831985
0.000299928
0.008294
0.000312966
0.00826725
0.000325812
0.00823961
0.000338417
0.00821111
0.000350735
0.00818178
0.000362715
0.00815166
0.000374302
0.000385441
0.00843344
-0.000117167
0.00844036
-0.000111459
0.00844675
-0.000105479
0.0084526
-9.92003e-05
0.00845788
-9.26168e-05
0.00846258
-8.57282e-05
0.00846667
-7.85338e-05
0.00847013
-7.10319e-05
0.00847295
-6.32215e-05
0.00847511
-5.5102e-05
0.00847658
-4.6673e-05
0.00847735
-3.79346e-05
0.0084774
-2.88872e-05
0.00847671
-1.95317e-05
0.00847527
-9.86948e-06
0.00847305
9.75783e-08
0.00847004
1.03671e-05
0.00846622
2.09361e-05
0.00846158
3.18009e-05
0.0084561
4.29573e-05
0.00844977
5.44001e-05
0.00844257
6.61234e-05
0.00843449
7.81203e-05
0.00842552
9.03831e-05
0.00841564
0.000102903
0.00840484
0.000115669
0.00839311
0.000128671
0.00838045
0.000141896
0.00836683
0.000155329
0.00835227
0.000168954
0.00833675
0.000182754
0.00832026
0.000196708
0.00830281
0.000210797
0.0082844
0.000224995
0.00826501
0.000239277
0.00824467
0.000253615
0.00822336
0.000267978
0.0082011
0.000282332
0.0081779
0.000296643
0.00815377
0.000310871
0.00812872
0.000324975
0.00810278
0.000338912
0.00807596
0.000352635
0.00804828
0.000366094
0.00801978
0.000379238
0.00799048
0.000392011
0.00796042
0.000404358
0.000416218
0.00826265
-0.000124262
0.00826922
-0.00011803
0.00827524
-0.000111506
0.00828071
-0.000104665
0.00828559
-9.74984e-05
0.00828987
-9.00078e-05
0.00829353
-8.21925e-05
0.00829655
-7.4051e-05
0.00829891
-6.55825e-05
0.00830059
-5.67867e-05
0.00830158
-4.76635e-05
0.00830186
-3.82133e-05
0.00830141
-2.84369e-05
0.00830022
-1.83356e-05
0.00829826
-7.91109e-06
0.00829552
2.83434e-06
0.00829199
1.38978e-05
0.00828765
2.52759e-05
0.00828249
3.69645e-05
0.00827648
4.89585e-05
0.00826963
6.12525e-05
0.00826192
7.38398e-05
0.00825332
8.67128e-05
0.00824384
9.9863e-05
0.00823347
0.000113281
0.00822218
0.000126955
0.00820998
0.000140873
0.00819685
0.000155021
0.0081828
0.000169385
0.0081678
0.000183946
0.00815187
0.000198686
0.008135
0.000213584
0.00811718
0.000228616
0.00809842
0.000243758
0.00807871
0.000258981
0.00805807
0.000274256
0.0080365
0.00028955
0.008014
0.000304828
0.00799059
0.000320051
0.00796629
0.000335178
0.00794109
0.000350166
0.00791504
0.000364967
0.00788814
0.000379533
0.00786042
0.00039381
0.00783192
0.000407744
0.00780266
0.000421275
0.00777267
0.000434343
0.000446885
0.00809601
-0.000131
0.00810221
-0.000124224
0.00810784
-0.000117138
0.00811289
-0.000109715
0.00811734
-0.000101949
0.00812117
-9.38398e-05
0.00812437
-8.53882e-05
0.00812691
-7.65928e-05
0.00812878
-6.7453e-05
0.00812996
-5.79689e-05
0.00813044
-4.81406e-05
0.0081302
-3.7969e-05
0.00812921
-2.74553e-05
0.00812748
-1.6601e-05
0.00812498
-5.40845e-06
0.00812169
6.11974e-06
0.00811761
1.79802e-05
0.00811272
3.01689e-05
0.008107
4.26811e-05
0.00810045
5.55115e-05
0.00809305
6.86535e-05
0.00808478
8.21001e-05
0.00807565
9.58429e-05
0.00806565
0.000109872
0.00805475
0.000124178
0.00804295
0.000138749
0.00803026
0.00015357
0.00801665
0.000168628
0.00800213
0.000183906
0.00798669
0.000199385
0.00797033
0.000215045
0.00795305
0.000230864
0.00793485
0.000246817
0.00791573
0.000262878
0.00789569
0.000279016
0.00787475
0.000295201
0.0078529
0.000311397
0.00783016
0.000327567
0.00780654
0.00034367
0.00778206
0.000359664
0.00775672
0.0003755
0.00773056
0.000391131
0.00770359
0.000406503
0.00767584
0.000421561
0.00764734
0.000436246
0.00761811
0.000450496
0.00758821
0.000464248
0.000477432
0.00793324
-0.000137349
0.00793903
-0.000130009
0.00794423
-0.000122341
0.00794883
-0.000114318
0.00795282
-0.000105934
0.00795617
-9.71902e-05
0.00795887
-8.8087e-05
0.0079609
-7.86236e-05
0.00796224
-6.87996e-05
0.00796289
-5.86153e-05
0.00796282
-4.80716e-05
0.00796202
-3.71694e-05
0.00796048
-2.59104e-05
0.00795817
-1.42967e-05
0.00795509
-2.33093e-06
0.00795123
9.98367e-06
0.00794657
2.26432e-05
0.00794109
3.56432e-05
0.0079348
4.89783e-05
0.00792766
6.26423e-05
0.00791969
7.66283e-05
0.00791086
9.09283e-05
0.00790117
0.000105533
0.00789061
0.000120433
0.00787917
0.000135616
0.00786685
0.00015107
0.00785364
0.000166781
0.00783954
0.000182731
0.00782454
0.000198905
0.00780864
0.000215282
0.00779184
0.000231841
0.00777415
0.000248558
0.00775556
0.000265408
0.00773608
0.000282361
0.00771571
0.000299386
0.00769446
0.000316451
0.00767234
0.000333518
0.00764935
0.000350548
0.00762553
0.000367498
0.00760087
0.000384322
0.0075754
0.000400972
0.00754913
0.000417394
0.0075221
0.000433535
0.00749433
0.000449335
0.00746584
0.000464732
0.00743668
0.000479661
0.00740687
0.000494054
0.00050784
0.00777403
-0.000143272
0.00777937
-0.000135348
0.0077841
-0.000127078
0.00778822
-0.000118436
0.00779171
-0.000109417
0.00779454
-0.000100023
0.00779671
-9.02533e-05
0.00779819
-8.0108e-05
0.00779898
-6.95873e-05
0.00779905
-5.86919e-05
0.00779841
-4.74228e-05
0.00779702
-3.57816e-05
0.00779488
-2.37704e-05
0.00779197
-1.13917e-05
0.00778829
1.35132e-06
0.00778382
1.44549e-05
0.00777855
2.79146e-05
0.00777247
4.17253e-05
0.00776556
5.58809e-05
0.00775783
7.03748e-05
0.00774926
8.51992e-05
0.00773984
0.000100345
0.00772957
0.000115804
0.00771844
0.000131563
0.00770645
0.000147611
0.00769358
0.000163934
0.00767985
0.000180517
0.00766524
0.000197342
0.00764975
0.000214392
0.00763339
0.000231646
0.00761615
0.00024908
0.00759804
0.00026667
0.00757905
0.000284389
0.00755921
0.000302206
0.00753851
0.000320089
0.00751696
0.000338002
0.00749457
0.000355907
0.00747135
0.000373762
0.00744733
0.000391523
0.00742251
0.000409141
0.00739692
0.000426565
0.00737057
0.000443741
0.00734349
0.000460611
0.00731572
0.000477112
0.00728727
0.000493179
0.00725819
0.000508746
0.0072285
0.000523739
0.000538084
0.00761808
-0.00014873
0.00762294
-0.000140201
0.00762717
-0.000131311
0.00763076
-0.000122032
0.00763371
-0.000112361
0.00763598
-0.0001023
0.00763758
-9.18494e-05
0.00763848
-8.10095e-05
0.00763867
-6.97806e-05
0.00763815
-5.81639e-05
0.00763688
-4.61608e-05
0.00763488
-3.37734e-05
0.00763211
-2.10042e-05
0.00762857
-7.85618e-06
0.00762426
5.66686e-06
0.00761915
1.95606e-05
0.00761325
3.382e-05
0.00760653
4.84393e-05
0.007599
6.34118e-05
0.00759065
7.873e-05
0.00758146
9.43855e-05
0.00757144
0.000110369
0.00756057
0.000126669
0.00754886
0.000143275
0.0075363
0.000160173
0.00752288
0.000177349
0.00750861
0.000194786
0.00749349
0.000212467
0.00747751
0.000230371
0.00746068
0.000248477
0.007443
0.000266761
0.00742447
0.000285197
0.0074051
0.000303756
0.0073849
0.000322406
0.00736388
0.000341114
0.00734204
0.000359842
0.00731939
0.000378549
0.00729596
0.000397194
0.00727176
0.000415727
0.0072468
0.000434101
0.0072211
0.000452261
0.00719469
0.000470149
0.0071676
0.000487705
0.00713984
0.000504865
0.00711146
0.000521561
0.00708249
0.000537721
0.00705296
0.000553271
0.000568132
0.00746511
-0.000153678
0.00746944
-0.000144526
0.00747312
-0.000134996
0.00747616
-0.000125062
0.00747852
-0.000114723
0.0074802
-0.000103981
0.00748119
-9.28372e-05
0.00748147
-8.1291e-05
0.00748103
-6.93438e-05
0.00747987
-5.6997e-05
0.00747796
-4.42527e-05
0.0074753
-3.11133e-05
0.00747187
-1.75818e-05
0.00746768
-3.66182e-06
0.0074627
1.06423e-05
0.00745694
2.53257e-05
0.00745038
4.03826e-05
0.00744301
5.58066e-05
0.00743483
7.15903e-05
0.00742584
8.77255e-05
0.00741602
0.000104203
0.00740537
0.000121012
0.0073939
0.000138142
0.0073816
0.00015558
0.00736846
0.000173312
0.00735449
0.000191322
0.00733968
0.000209592
0.00732404
0.000228105
0.00730757
0.00024684
0.00729028
0.000265773
0.00727216
0.000284879
0.00725323
0.000304131
0.00723348
0.000323498
0.00721294
0.000342949
0.00719161
0.000362447
0.0071695
0.000381953
0.00714662
0.000401427
0.00712299
0.000420821
0.00709863
0.000440089
0.00707356
0.000459177
0.00704779
0.00047803
0.00702135
0.000496588
0.00699427
0.000514788
0.00696657
0.000532563
0.00693829
0.000549842
0.00690946
0.000566552
0.00688011
0.000582613
0.000597945
0.00731484
-0.000158071
0.00731859
-0.000148277
0.00732169
-0.000138089
0.00732411
-0.000127485
0.00732585
-0.000116464
0.0073269
-0.000105028
0.00732724
-9.31783e-05
0.00732686
-8.09158e-05
0.00732576
-6.82417e-05
0.00732392
-5.51579e-05
0.00732134
-4.16669e-05
0.00731799
-2.77715e-05
0.00731389
-1.34753e-05
0.00730901
1.2174e-06
0.00730335
1.63018e-05
0.0072969
3.17723e-05
0.00728966
4.76226e-05
0.00728162
6.38453e-05
0.00727278
8.04325e-05
0.00726313
9.7375e-05
0.00725267
0.000114663
0.0072414
0.000132285
0.00722931
0.000150229
0.00721641
0.000168482
0.00720269
0.000187028
0.00718817
0.000205851
0.00717283
0.000224932
0.00715668
0.000244253
0.00713973
0.000263791
0.00712198
0.000283522
0.00710344
0.00030342
0.00708411
0.000323456
0.00706401
0.000343598
0.00704315
0.000363814
0.00702153
0.000384066
0.00699917
0.000404313
0.00697608
0.000424512
0.00695229
0.000444616
0.0069278
0.000464576
0.00690264
0.000484335
0.00687683
0.000503838
0.0068504
0.000523022
0.00682337
0.000541821
0.00679576
0.000560166
0.00676762
0.000577983
0.00673898
0.000595196
0.00670987
0.000611724
0.000627481
0.00716699
-0.000161861
0.00717012
-0.000151408
0.00717258
-0.000140546
0.00717435
-0.000129257
0.00717543
-0.00011754
0.0071758
-0.000105399
0.00717545
-9.2835e-05
0.00717439
-7.98482e-05
0.00717259
-6.64408e-05
0.00717004
-5.26151e-05
0.00716675
-3.83739e-05
0.0071627
-2.37207e-05
0.00715788
-8.6596e-06
0.0071523
6.80456e-06
0.00714593
2.26663e-05
0.00713878
3.89192e-05
0.00713085
5.55563e-05
0.00712213
7.25696e-05
0.00711261
8.99501e-05
0.0071023
0.000107688
0.00709119
0.000125773
0.00707928
0.000144192
0.00706658
0.000162932
0.00705308
0.00018198
0.00703879
0.000201319
0.00702371
0.000220931
0.00700784
0.000240798
0.00699119
0.000260899
0.00697378
0.000281211
0.00695559
0.000301709
0.00693664
0.000322365
0.00691695
0.000343151
0.00689651
0.000364033
0.00687535
0.000384976
0.00685348
0.000405942
0.0068309
0.000426889
0.00680764
0.000447773
0.00678371
0.000468544
0.00675913
0.000489152
0.00673393
0.000509539
0.00670812
0.000529646
0.00668174
0.000549409
0.00665479
0.000568761
0.00662733
0.000587629
0.00659938
0.000605938
0.00657096
0.000623608
0.00654213
0.000640555
0.000656692
0.00702128
-0.000164996
0.00702374
-0.000153871
0.00702552
-0.000142321
0.0070266
-0.000130334
0.00702697
-0.000117912
0.00702663
-0.000105058
0.00702556
-9.17714e-05
0.00702377
-7.80547e-05
0.00702124
-6.39099e-05
0.00701796
-4.93396e-05
0.00701394
-3.43472e-05
0.00700915
-1.89366e-05
0.00700361
-3.11271e-06
0.00699729
1.31192e-05
0.00699021
2.97528e-05
0.00698234
4.67811e-05
0.0069737
6.41962e-05
0.00696428
8.19893e-05
0.00695408
0.000100151
0.0069431
0.00011867
0.00693134
0.000137534
0.0069188
0.000156732
0.00690548
0.000176249
0.0068914
0.000196069
0.00687654
0.000216176
0.00686092
0.000236551
0.00684454
0.000257175
0.00682741
0.000278026
0.00680954
0.00029908
0.00679094
0.000320311
0.00677162
0.000341691
0.00675158
0.000363189
0.00673084
0.000384771
0.00670941
0.000406402
0.00668731
0.000428041
0.00666456
0.000449646
0.00664116
0.00047117
0.00661714
0.000492564
0.00659252
0.000513774
0.00656731
0.000534742
0.00654155
0.000555407
0.00651526
0.000575703
0.00648846
0.000595561
0.00646118
0.000614905
0.00643346
0.000633658
0.00640534
0.000651737
0.00637683
0.000669056
0.000685525
0.00687746
-0.000167429
0.00687921
-0.00015562
0.00688026
-0.000143371
0.0068806
-0.000130677
0.00688023
-0.000117542
0.00687914
-0.000103967
0.00687732
-8.99544e-05
0.00687477
-7.55048e-05
0.00687148
-6.0621e-05
0.00686745
-4.53061e-05
0.00686266
-2.95639e-05
0.00685713
-1.33991e-05
0.00685083
3.18317e-06
0.00684377
2.01766e-05
0.00683595
3.75743e-05
0.00682736
5.53683e-05
0.00681801
7.35499e-05
0.00680789
9.21095e-05
0.006797
0.000111036
0.00678535
0.000130319
0.00677294
0.000149945
0.00675978
0.0001699
0.00674586
0.000190169
0.00673119
0.000210737
0.00671578
0.000231585
0.00669964
0.000252694
0.00668277
0.000274044
0.00666518
0.000295612
0.00664689
0.000317373
0.0066279