/*--------------------------------*- C++ -*----------------------------------*\
  =========                 |
  \\      /  F ield         | OpenFOAM: The Open Source CFD Toolbox
   \\    /   O peration     | Website:  https://openfoam.org
    \\  /    A nd           | Version:  7
     \\/     M anipulation  |
\*---------------------------------------------------------------------------*/
FoamFile
{
    version     2.0;
    format      ascii;
    class       volScalarField;
    location    "30";
    object      p;
}
// * * * * * * * * * * * * * * * * * * * * * * * * * * * * * * * * * * * * * //

dimensions      [0 2 -2 0 0 0 0];

internalField   nonuniform List<scalar> 
657
(
-0.00886772
-0.00737166
-0.00619053
-0.00466742
-0.00382662
-0.0020743
-0.00186863
0.000480015
-0.0499234
-0.0465456
-0.0433329
-0.0402789
-0.0373769
-0.0346196
-0.032
-0.0295106
-0.0271448
-0.0248945
-0.0227552
-0.0207164
-0.0187791
-0.0169251
-0.0151702
-0.0134741
-0.0118901
-0.0103195
-0.00891081
-0.00741715
-0.00622056
-0.00471477
-0.00383821
-0.00214359
-0.00184084
0.000336515
-0.0500768
-0.0467059
-0.0434959
-0.0404412
-0.0375357
-0.0347729
-0.0321462
-0.0296486
-0.0272739
-0.0250142
-0.0228655
-0.0208173
-0.0188708
-0.0170084
-0.0152448
-0.0135419
-0.0119495
-0.0103751
-0.00895661
-0.00746542
-0.00625255
-0.0047648
-0.00385083
-0.00221622
-0.00181223
0.00018719
-0.0502359
-0.0468729
-0.0436663
-0.0406113
-0.0377026
-0.0349342
-0.0323003
-0.0297941
-0.0274101
-0.0251407
-0.022982
-0.0209241
-0.0189678
-0.0170965
-0.0153238
-0.0136137
-0.0120124
-0.010434
-0.00900515
-0.00751647
-0.00628657
-0.00481749
-0.0038646
-0.00229207
-0.00178309
3.2522e-05
-0.0504002
-0.0470462
-0.0438438
-0.0407891
-0.0378774
-0.0351035
-0.0324622
-0.0299473
-0.0275536
-0.0252741
-0.0231049
-0.0210368
-0.0190702
-0.0171896
-0.0154072
-0.0136896
-0.012079
-0.0104962
-0.00905653
-0.00757036
-0.00632273
-0.00487284
-0.0038797
-0.002371
-0.00175377
-0.000126874
-0.0505693
-0.0472257
-0.0440284
-0.0409745
-0.0380601
-0.0352808
-0.032632
-0.0301082
-0.0277045
-0.0254144
-0.0232343
-0.0211555
-0.0191782
-0.0172878
-0.0154953
-0.0137696
-0.0121492
-0.0105618
-0.00911086
-0.00762713
-0.00636114
-0.00493081
-0.0038963
-0.0024528
-0.00172464
-0.000290236
-0.0507427
-0.0474109
-0.0442198
-0.0411673
-0.0382506
-0.0354661
-0.0328098
-0.0302768
-0.0278628
-0.0255618
-0.0233704
-0.0212804
-0.0192919
-0.0173911
-0.015588
-0.013854
-0.0122233
-0.010631
-0.00916822
-0.0076868
-0.00640191
-0.00499136
-0.00391458
-0.00253721
-0.00169616
-0.000456627
-0.0509197
-0.0476012
-0.0444174
-0.0413671
-0.0384486
-0.0356591
-0.0329953
-0.030453
-0.0280284
-0.0257161
-0.023513
-0.0214113
-0.0194111
-0.0174996
-0.0156854
-0.0139426
-0.0123011
-0.0107036
-0.00922864
-0.00774933
-0.00644512
-0.00505436
-0.00393473
-0.0026239
-0.00166881
-0.000624926
-0.0510996
-0.047796
-0.0446206
-0.0415735
-0.0386537
-0.0358594
-0.0331882
-0.0306365
-0.0282012
-0.0258773
-0.023662
-0.0215483
-0.019536
-0.0176133
-0.0157875
-0.0140354
-0.0123828
-0.0107796
-0.00929213
-0.00781466
-0.00649083
-0.00511968
-0.00395693
-0.00271246
-0.00164316
-0.000793821
-0.0512812
-0.0479944
-0.0448288
-0.0417857
-0.0388653
-0.0360666
-0.0333881
-0.030827
-0.0283807
-0.026045
-0.0238172
-0.0216911
-0.0196661
-0.0177318
-0.015894
-0.0141324
-0.0124682
-0.010859
-0.00935866
-0.00788268
-0.00653907
-0.00518712
-0.00398137
-0.00280241
-0.0016198
-0.000961814
-0.0514636
-0.0481953
-0.0450408
-0.0420028
-0.0390825
-0.0362799
-0.0335943
-0.0310239
-0.0285666
-0.0262188
-0.0239782
-0.0218394
-0.0198014
-0.0178551
-0.0160049
-0.0142332
-0.0125571
-0.0109416
-0.00942813
-0.00795321
-0.00658982
-0.00525639
-0.00400818
-0.00289316
-0.00159935
-0.00112723
-0.0516453
-0.0483974
-0.0452557
-0.0422238
-0.0393044
-0.0364984
-0.0338061
-0.0312264
-0.028758
-0.026398
-0.0241445
-0.0219926
-0.0199414
-0.0179826
-0.0161198
-0.0143376
-0.0126493
-0.0110271
-0.00950037
-0.00802601
-0.00664302
-0.0053272
-0.0040375
-0.00298406
-0.00158245
-0.00128826
-0.0518251
-0.0485995
-0.0454719
-0.0424474
-0.0395297
-0.0367209
-0.0340223
-0.0314336
-0.0289542
-0.0265819
-0.0243153
-0.0221501
-0.0200854
-0.018114
-0.0162381
-0.0144452
-0.0127445
-0.0111151
-0.00957513
-0.00810075
-0.00669854
-0.00539913
-0.00406941
-0.0030744
-0.00156971
-0.00144295
-0.0520014
-0.0487999
-0.045688
-0.0426721
-0.039757
-0.0369461
-0.0342416
-0.0316442
-0.029154
-0.0267695
-0.0244897
-0.0223111
-0.0202327
-0.0182484
-0.0163594
-0.0145554
-0.0128422
-0.0112053
-0.00965206
-0.00817703
-0.00675614
-0.00547171
-0.00410391
-0.00316336
-0.0015617
-0.0015893
-0.0521726
-0.048997
-0.0459022
-0.042896
-0.0399845
-0.0371723
-0.0344625
-0.0318568
-0.0293559
-0.0269594
-0.0246665
-0.0224745
-0.0203824
-0.018385
-0.0164827
-0.0146676
-0.0129418
-0.011297
-0.00973069
-0.00825432
-0.00681554
-0.00554441
-0.00414093
-0.00325009
-0.00155893
-0.00172532
-0.0523371
-0.0491889
-0.0461126
-0.0431173
-0.0402104
-0.0373976
-0.0346831
-0.0320695
-0.0295584
-0.0271501
-0.0248443
-0.0226389
-0.0205331
-0.0185228
-0.0166072
-0.0147807
-0.0130424
-0.0113895
-0.00981041
-0.00833202
-0.00687629
-0.00561658
-0.0041803
-0.00333368
-0.00156176
-0.00184908
-0.0524933
-0.0493738
-0.046317
-0.0433337
-0.0404323
-0.0376197
-0.0349012
-0.0322803
-0.0297595
-0.0273397
-0.0250213
-0.0228028
-0.0206836
-0.0186603
-0.0167317
-0.0148938
-0.0131432
-0.0114819
-0.00989049
-0.00840937
-0.00693785
-0.0056875
-0.00422172
-0.00341321
-0.0015704
-0.00195885
-0.0526396
-0.0495497
-0.0465134
-0.0435428
-0.0406477
-0.0378361
-0.0351143
-0.0324868
-0.0299568
-0.0275261
-0.0251955
-0.0229644
-0.020832
-0.0187961
-0.0168547
-0.0150055
-0.013243
-0.0115732
-0.00996999
-0.00848549
-0.00699952
-0.00575637
-0.00426473
-0.00348773
-0.00158485
-0.00205317
-0.0527747
-0.0497146
-0.0466994
-0.0437422
-0.040854
-0.0380441
-0.0353197
-0.0326863
-0.0301478
-0.0277068
-0.0253647
-0.0231214
-0.0209764
-0.0189283
-0.0169746
-0.0151144
-0.0133403
-0.0116621
-0.0100478
-0.00855935
-0.00706042
-0.00582227
-0.00430873
-0.00355632
-0.00160487
-0.00213097
-0.052897
-0.0498666
-0.0468724
-0.0439289
-0.0410482
-0.0382406
-0.0355143
-0.0328756
-0.0303295
-0.0278789
-0.025526
-0.0232713
-0.0211145
-0.0190547
-0.0170893
-0.0152187
-0.0134338
-0.0117472
-0.0101227
-0.0086298
-0.00711954
-0.00588421
-0.00435291
-0.00361808
-0.00162994
-0.00219167
-0.0530054
-0.0500036
-0.04703
-0.0441
-0.041227
-0.0384221
-0.0356945
-0.0330515
-0.0304984
-0.0280393
-0.0256765
-0.0234112
-0.0212435
-0.0191729
-0.0171968
-0.0153163
-0.0135214
-0.0118269
-0.0101932
-0.00869547
-0.00717566
-0.0059411
-0.00439628
-0.00367216
-0.00165922
-0.00223526
-0.0530988
-0.0501238
-0.0471695
-0.0442525
-0.0413869
-0.038585
-0.0358567
-0.03321
-0.030651
-0.0281843
-0.0258128
-0.0235381
-0.0213606
-0.0192803
-0.0172944
-0.0154049
-0.0136011
-0.0118993
-0.0102575
-0.00875488
-0.00722734
-0.00599173
-0.00443759
-0.00371781
-0.00169147
-0.00226247
-0.0531763
-0.050225
-0.047288
-0.0443827
-0.0415242
-0.0387252
-0.0359966
-0.033347
-0.0307831
-0.02831
-0.0259311
-0.0236483
-0.0214624
-0.0193737
-0.0173794
-0.0154821
-0.0136707
-0.0119622
-0.0103138
-0.00880636
-0.00727296
-0.00603489
-0.00447527
-0.00375453
-0.00172472
-0.00227482
-0.0532367
-0.0503052
-0.0473827
-0.0444873
-0.0416347
-0.0388384
-0.0361098
-0.033458
-0.0308903
-0.0284121
-0.0260272
-0.023738
-0.0215452
-0.0194497
-0.0174487
-0.0155451
-0.0137274
-0.0120135
-0.0103599
-0.00884807
-0.0073107
-0.00606917
-0.00450764
-0.00378179
-0.00175706
-0.00227402
-0.0532791
-0.050362
-0.0474502
-0.044562
-0.0417139
-0.0389197
-0.0361912
-0.033538
-0.0309676
-0.0284858
-0.0260966
-0.0238028
-0.0216051
-0.0195047
-0.0174989
-0.0155906
-0.0137686
-0.0120505
-0.0103935
-0.00887777
-0.007339
-0.00609227
-0.0045342
-0.00379645
-0.00179119
-0.00225964
-0.0503926
-0.0474865
-0.0446024
-0.0417567
-0.0389637
-0.0362352
-0.0335812
-0.0310094
-0.0285257
-0.0261343
-0.0238379
-0.0216376
-0.0195345
-0.0175262
-0.0156152
-0.0137911
-0.0120703
-0.0104124
-0.00889274
-0.00735647
-0.00610088
-0.00455562
-0.00379226
-0.00183389
-0.00223188
)
;

boundaryField
{
    inlet
    {
        type            zeroGradient;
    }
    outlet
    {
        type            fixedValue;
        value           uniform 0;
    }
    cylinder
    {
        type            zeroGradient;
    }
    top
    {
        type            symmetryPlane;
    }
    bottom
    {
        type            symmetryPlane;
    }
    defaultFaces
    {
        type            empty;
    }
    procBoundary15to11
    {
        type            processor;
        value           nonuniform List<scalar> 
27
(
-0.00882727
-0.00732887
-0.00616241
-0.00462269
-0.00381602
-0.0020083
-0.00189557
0.000617483
-0.0497762
-0.0463925
-0.0431778
-0.0401249
-0.0372264
-0.0344745
-0.0318618
-0.0293803
-0.0270231
-0.0247816
-0.0226514
-0.0206213
-0.0186927
-0.0168467
-0.0151
-0.0134102
-0.0118342
-0.0102672
-0.0102672
)
;
    }
    procBoundary15to14
    {
        type            processor;
        value           nonuniform List<scalar> 
26
(
-0.0534721
-0.0536137
-0.0537595
-0.0539088
-0.0540613
-0.0542162
-0.0543727
-0.0545299
-0.0546866
-0.0548418
-0.054994
-0.0551419
-0.0552842
-0.0554193
-0.055546
-0.0556631
-0.0557695
-0.0558643
-0.0559472
-0.0560177
-0.056076
-0.0561223
-0.056157
-0.0561806
-0.0533018
-0.0533018
)
;
    }
}


// ************************************************************************* //
