/*--------------------------------*- C++ -*----------------------------------*\
  =========                 |
  \\      /  F ield         | OpenFOAM: The Open Source CFD Toolbox
   \\    /   O peration     | Website:  https://openfoam.org
    \\  /    A nd           | Version:  7
     \\/     M anipulation  |
\*---------------------------------------------------------------------------*/
FoamFile
{
    version     2.0;
    format      ascii;
    class       volScalarField;
    location    "20";
    object      p;
}
// * * * * * * * * * * * * * * * * * * * * * * * * * * * * * * * * * * * * * //

dimensions      [0 2 -2 0 0 0 0];

internalField   nonuniform List<scalar> 
6050
(
-0.31804
-0.318681
-0.319041
-0.319105
-0.318854
-0.318267
-0.317315
-0.315954
-0.314126
-0.311814
-0.308872
-0.305392
-0.30096
-0.318212
-0.318853
-0.319216
-0.319286
-0.319043
-0.318467
-0.317533
-0.316194
-0.31438
-0.312115
-0.309127
-0.305721
-0.300902
-0.31854
-0.31918
-0.319546
-0.319623
-0.319393
-0.318835
-0.317926
-0.316628
-0.314821
-0.312668
-0.309529
-0.306385
-0.300754
-0.318996
-0.319628
-0.319992
-0.320072
-0.319852
-0.319309
-0.31842
-0.317176
-0.315323
-0.313407
-0.309859
-0.307372
-0.300469
-0.319537
-0.320152
-0.320503
-0.320576
-0.320354
-0.319813
-0.318922
-0.317751
-0.315725
-0.314255
-0.30986
-0.308576
-0.300173
-0.320698
-0.321021
-0.321069
-0.320827
-0.320269
-0.319332
-0.318273
-0.315918
-0.314887
-0.30995
-0.309067
-0.300026
-0.321211
-0.321484
-0.321486
-0.321197
-0.320602
-0.319579
-0.318554
-0.31592
-0.315193
-0.309573
-0.309127
-0.299771
-0.321637
-0.321836
-0.321767
-0.321403
-0.320735
-0.319587
-0.318552
-0.315565
-0.314997
-0.308817
-0.308321
-0.29925
-0.321927
-0.322026
-0.321859
-0.321387
-0.320602
-0.319281
-0.318119
-0.314845
-0.313972
-0.307695
-0.306339
-0.297994
-0.322042
-0.322012
-0.321714
-0.32109
-0.320128
-0.318591
-0.317099
-0.313665
-0.311922
-0.305944
-0.303139
-0.295412
-0.321951
-0.32176
-0.321289
-0.320455
-0.319231
-0.317391
-0.315366
-0.311758
-0.308838
-0.303131
-0.298803
-0.291238
-0.321238
-0.320537
-0.319403
-0.317811
-0.315512
-0.312813
-0.308815
-0.304762
-0.298987
-0.293418
-0.285599
-0.320414
-0.319395
-0.31784
-0.315731
-0.312791
-0.309317
-0.304677
-0.299701
-0.293552
-0.287141
-0.278968
-0.319244
-0.317778
-0.315653
-0.312845
-0.309118
-0.304788
-0.299397
-0.293714
-0.287106
-0.280242
-0.271852
-0.317662
-0.315587
-0.312729
-0.309053
-0.304465
-0.29926
-0.293178
-0.286984
-0.280018
-0.273037
-0.264588
-0.312728
-0.308988
-0.304349
-0.298906
-0.292896
-0.28629
-0.279748
-0.272596
-0.265753
-0.257351
-0.309142
-0.30442
-0.298822
-0.292605
-0.285933
-0.278986
-0.272195
-0.265021
-0.258466
-0.250189
-0.299103
-0.292635
-0.285767
-0.278602
-0.271453
-0.26445
-0.257378
-0.251074
-0.243042
-0.29317
-0.285967
-0.278583
-0.271082
-0.263805
-0.256624
-0.249697
-0.24335
-0.235776
-0.278979
-0.271203
-0.263486
-0.25611
-0.24883
-0.242003
-0.235249
-0.22827
-0.271794
-0.263727
-0.25587
-0.248417
-0.241122
-0.234326
-0.227308
-0.220569
-0.25621
-0.248257
-0.240758
-0.233484
-0.226656
-0.219775
-0.213391
-0.248677
-0.240659
-0.233139
-0.225891
-0.219138
-0.212406
-0.206319
-0.233073
-0.225547
-0.218363
-0.211698
-0.205133
-0.199402
-0.217973
-0.210867
-0.204318
-0.197963
-0.192479
-0.203386
-0.196964
-0.190798
-0.185554
-0.1896
-0.18363
-0.178588
-0.17642
-0.171564
-0.17642
-0.171564
-0.1896
-0.183631
-0.178588
-0.203386
-0.196964
-0.190798
-0.185555
-0.217973
-0.210867
-0.204318
-0.197964
-0.192479
-0.233073
-0.225547
-0.218363
-0.211698
-0.205133
-0.199403
-0.248677
-0.240659
-0.233139
-0.225891
-0.219138
-0.212406
-0.206319
-0.25621
-0.248257
-0.240758
-0.233484
-0.226656
-0.219775
-0.213391
-0.271794
-0.263727
-0.25587
-0.248417
-0.241122
-0.234326
-0.227308
-0.22057
-0.278979
-0.271203
-0.263486
-0.25611
-0.24883
-0.242003
-0.235249
-0.22827
-0.29317
-0.285966
-0.278583
-0.271082
-0.263805
-0.256624
-0.249697
-0.24335
-0.235777
-0.299103
-0.292634
-0.285767
-0.278601
-0.271453
-0.26445
-0.257379
-0.251074
-0.243043
-0.309141
-0.30442
-0.298822
-0.292605
-0.285932
-0.278986
-0.272195
-0.265021
-0.258466
-0.250189
-0.312728
-0.308987
-0.304348
-0.298905
-0.292895
-0.286289
-0.279748
-0.272596
-0.265753
-0.257351
-0.317661
-0.315587
-0.312728
-0.309053
-0.304465
-0.299259
-0.293177
-0.286984
-0.280018
-0.273037
-0.264589
-0.319243
-0.317778
-0.315652
-0.312844
-0.309117
-0.304787
-0.299396
-0.293714
-0.287106
-0.280242
-0.271852
-0.320414
-0.319394
-0.317839
-0.31573
-0.31279
-0.309316
-0.304676
-0.2997
-0.293552
-0.287141
-0.278969
-0.321238
-0.320536
-0.319402
-0.31781
-0.315511
-0.312812
-0.308814
-0.304761
-0.298987
-0.293418
-0.285599
-0.321951
-0.321759
-0.321289
-0.320454
-0.31923
-0.31739
-0.315365
-0.311757
-0.308837
-0.30313
-0.298803
-0.291239
-0.322042
-0.322011
-0.321713
-0.32109
-0.320127
-0.318589
-0.317097
-0.313664
-0.31192
-0.305944
-0.303139
-0.295412
-0.321927
-0.322025
-0.321858
-0.321386
-0.320601
-0.31928
-0.318118
-0.314844
-0.313971
-0.307695
-0.306338
-0.297995
-0.321637
-0.321835
-0.321767
-0.321403
-0.320734
-0.319586
-0.318551
-0.315563
-0.314996
-0.308816
-0.308321
-0.299251
-0.321211
-0.321483
-0.321486
-0.321197
-0.320601
-0.319578
-0.318553
-0.315919
-0.315192
-0.309572
-0.309127
-0.299772
-0.320698
-0.32102
-0.321069
-0.320826
-0.320269
-0.319331
-0.318272
-0.315917
-0.314886
-0.309949
-0.309067
-0.300027
-0.319537
-0.320152
-0.320503
-0.320576
-0.320354
-0.319813
-0.318921
-0.31775
-0.315724
-0.314254
-0.309859
-0.308576
-0.300174
-0.318996
-0.319628
-0.319992
-0.320072
-0.319852
-0.319308
-0.31842
-0.317175
-0.315322
-0.313406
-0.309858
-0.307372
-0.30047
-0.31854
-0.31918
-0.319546
-0.319622
-0.319393
-0.318834
-0.317925
-0.316627
-0.31482
-0.312668
-0.309529
-0.306385
-0.300755
-0.318212
-0.318853
-0.319216
-0.319285
-0.319043
-0.318467
-0.317532
-0.316194
-0.31438
-0.312115
-0.309127
-0.305721
-0.300902
-0.31804
-0.318681
-0.319041
-0.319105
-0.318854
-0.318267
-0.317315
-0.315954
-0.314126
-0.311814
-0.308871
-0.305392
-0.30096
-0.298226
-0.296252
-0.294142
-0.291873
-0.289419
-0.286753
-0.283861
-0.280702
-0.277233
-0.273411
-0.269183
-0.264494
-0.259283
-0.253489
-0.247047
-0.239895
-0.231974
-0.223233
-0.213638
-0.20317
-0.191835
-0.179669
-0.166729
-0.153151
-0.139064
-0.124644
-0.11008
-0.0956245
-0.0814944
-0.0679296
-0.0551424
-0.0433243
-0.0326247
-0.0231494
-0.0149562
-0.00804737
-0.00239765
0.00208693
0.00547273
0.00793302
0.00950941
0.0104525
0.0106966
0.0106031
0.00989418
0.00913167
0.00766215
0.00643076
0.00410944
0.00231761
-0.29849
-0.296532
-0.294432
-0.292172
-0.289727
-0.287109
-0.284252
-0.281127
-0.277696
-0.273914
-0.269729
-0.265084
-0.259919
-0.254173
-0.247779
-0.240674
-0.232798
-0.224098
-0.214539
-0.2041
-0.192788
-0.180641
-0.167701
-0.154123
-0.140023
-0.125588
-0.110962
-0.0964811
-0.0823129
-0.0687017
-0.0558658
-0.043998
-0.0332485
-0.0237243
-0.0154833
-0.00852894
-0.00283494
0.00169081
0.00511682
0.00761369
0.00922628
0.0102013
0.010478
0.0104111
0.0097321
0.00899044
0.00755088
0.00633381
0.00405075
0.0022657
-0.29892
-0.296978
-0.294867
-0.292679
-0.290318
-0.287728
-0.284915
-0.281844
-0.278475
-0.274762
-0.270652
-0.266089
-0.26101
-0.25535
-0.249044
-0.242025
-0.234232
-0.225611
-0.216124
-0.205748
-0.19449
-0.182409
-0.169392
-0.155851
-0.141742
-0.127271
-0.112636
-0.0980892
-0.0838546
-0.0701707
-0.0572559
-0.0453055
-0.0344707
-0.0248609
-0.0165337
-0.00949495
-0.00371732
0.00088844
0.0043934
0.00696381
0.00864923
0.00968964
0.0100329
0.0100211
0.00940336
0.00870515
0.00732672
0.00614001
0.0039337
0.00216516
-0.299701
-0.297669
-0.295534
-0.29331
-0.290949
-0.288408
-0.285654
-0.282652
-0.279361
-0.275733
-0.271718
-0.267257
-0.262254
-0.25671
-0.250515
-0.243608
-0.235925
-0.22741
-0.218021
-0.207735
-0.196549
-0.184497
-0.171622
-0.158081
-0.143981
-0.129501
-0.114846
-0.100258
-0.0859688
-0.0722172
-0.0592226
-0.0471827
-0.0362498
-0.0265355
-0.0180983
-0.0109469
-0.00505355
-0.00033307
0.00328731
0.00596832
0.00776371
0.00890499
0.00935036
0.00942502
0.00890194
0.00827258
0.00698794
0.00585061
0.00375933
0.00202242
-0.300154
-0.298298
-0.296019
-0.29378
-0.291466
-0.288977
-0.286277
-0.283336
-0.280114
-0.276566
-0.272636
-0.268268
-0.263396
-0.257959
-0.251882
-0.245098
-0.237541
-0.229154
-0.219892
-0.209728
-0.198659
-0.18671
-0.173938
-0.160472
-0.146437
-0.132004
-0.11738
-0.102798
-0.0884959
-0.0747114
-0.0616645
-0.0495534
-0.0385317
-0.0287127
-0.0201565
-0.0128749
-0.00684175
-0.00197688
0.0017924
0.00461984
0.0065623
0.00784075
0.00842481
0.00861894
0.00822518
0.00769263
0.00653507
0.00546955
0.00352989
0.00184655
-0.300128
-0.298669
-0.296376
-0.294056
-0.291737
-0.289279
-0.286618
-0.283722
-0.280557
-0.277075
-0.273221
-0.268937
-0.26416
-0.258826
-0.252865
-0.246207
-0.238785
-0.230541
-0.221429
-0.211419
-0.200507
-0.188716
-0.176105
-0.162783
-0.148881
-0.134568
-0.120045
-0.105541
-0.0912899
-0.0775299
-0.0644789
-0.0523341
-0.0412496
-0.0313397
-0.0226671
-0.0152475
-0.0090579
-0.00402457
-7.7222e-05
0.00292949
0.00505396
0.0065045
0.00726282
0.00760915
0.00737845
0.00697169
0.00597325
0.00500465
0.00324959
0.00164802
-0.29948
-0.298343
-0.296237
-0.293911
-0.291568
-0.289118
-0.286478
-0.283615
-0.280491
-0.277057
-0.273261
-0.269045
-0.264351
-0.259112
-0.253261
-0.246726
-0.239444
-0.231356
-0.222416
-0.212594
-0.201884
-0.190308
-0.17792
-0.164819
-0.151132
-0.137024
-0.122688
-0.108345
-0.0942239
-0.0805583
-0.0675632
-0.0554331
-0.0443215
-0.0343438
-0.0255655
-0.0180073
-0.0116513
-0.00643165
-0.00228256
0.0009311
0.00326801
0.00492153
0.00588595
0.00641451
0.00637721
0.00612397
0.00531332
0.00446775
0.00292492
0.00143717
-0.298039
-0.296982
-0.2952
-0.293032
-0.290709
-0.288246
-0.285615
-0.282784
-0.279702
-0.276313
-0.272564
-0.268407
-0.263787
-0.258639
-0.252896
-0.246491
-0.23936
-0.231447
-0.222706
-0.213109
-0.202647
-0.191341
-0.179245
-0.166447
-0.153065
-0.139253
-0.125194
-0.1111
-0.0971903
-0.0836922
-0.0708163
-0.0587526
-0.0476536
-0.0376353
-0.0287669
-0.0210752
-0.0145488
-0.00913142
-0.00476349
-0.00132203
0.00125124
0.00313241
0.00432879
0.00506464
0.00524583
0.00517038
0.00457119
0.00387372
0.00256442
0.00122288
-0.295628
-0.294341
-0.292926
-0.29108
-0.288858
-0.286387
-0.283763
-0.280984
-0.277969
-0.274639
-0.270944
-0.266851
-0.262314
-0.257269
-0.251648
-0.245388
-0.238431
-0.230722
-0.222218
-0.212889
-0.202729
-0.191755
-0.180016
-0.167594
-0.154602
-0.141177
-0.127486
-0.113724
-0.100103
-0.0868408
-0.0741432
-0.0621953
-0.0511473
-0.0411164
-0.0321758
-0.0243596
-0.0176642
-0.0120443
-0.00744765
-0.00376521
-0.000939358
0.00118678
0.00263367
0.00359568
0.0040139
0.00413571
0.00376578
0.00323864
0.00217771
0.00101176
-0.291842
-0.290119
-0.289146
-0.287792
-0.285766
-0.283317
-0.280729
-0.278047
-0.275143
-0.271903
-0.268289
-0.264286
-0.259859
-0.254943
-0.249473
-0.243391
-0.236643
-0.229178
-0.220955
-0.211946
-0.202142
-0.19156
-0.180242
-0.168263
-0.155728
-0.142766
-0.129521
-0.116165
-0.102899
-0.0899307
-0.0774616
-0.0656716
-0.0547086
-0.044691
-0.0356969
-0.0277682
-0.0209098
-0.0150889
-0.0102606
-0.00633161
-0.0032448
-0.0008639
0.000844534
0.00204509
0.00271218
0.00304551
0.00291649
0.0025779
0.00177437
0.000808107
-0.286485
-0.284317
-0.283767
-0.283013
-0.281266
-0.278913
-0.276453
-0.273953
-0.271222
-0.268118
-0.264626
-0.260757
-0.256481
-0.251734
-0.246455
-0.240592
-0.234095
-0.226918
-0.219022
-0.21038
-0.200983
-0.190843
-0.179999
-0.168517
-0.15649
-0.144039
-0.131294
-0.118402
-0.105539
-0.0929094
-0.0807064
-0.0691069
-0.0582565
-0.0482749
-0.0392451
-0.0312177
-0.0242062
-0.0181909
-0.0131344
-0.00896008
-0.00561104
-0.00297233
-0.000998137
0.000447335
0.00136914
0.00192319
0.00204118
0.00190475
0.0013629
0.000614175
-0.279535
-0.277211
-0.27749
-0.277175
-0.275516
-0.273296
-0.271082
-0.26887
-0.266381
-0.263466
-0.260149
-0.256465
-0.252386
-0.247848
-0.242799
-0.237194
-0.230988
-0.224137
-0.216605
-0.208367
-0.199412
-0.18975
-0.179413
-0.168458
-0.156968
-0.145053
-0.132835
-0.120436
-0.10801
-0.0957451
-0.0838328
-0.0724461
-0.0617284
-0.0518014
-0.0427524
-0.0346409
-0.0274888
-0.0212896
-0.0160133
-0.0116001
-0.00799329
-0.00509916
-0.00286051
-0.00116879
8.70602e-06
0.000788252
0.00115505
0.00122967
0.000950094
0.000430684
-0.271722
-0.269233
-0.270255
-0.270707
-0.269266
-0.266953
-0.264962
-0.263095
-0.260905
-0.258236
-0.255153
-0.251703
-0.247857
-0.243563
-0.238778
-0.233462
-0.227574
-0.221073
-0.213927
-0.206111
-0.197614
-0.188443
-0.178623
-0.168203
-0.157257
-0.145881
-0.134188
-0.122289
-0.11031
-0.0984239
-0.0868148
-0.0756537
-0.0650823
-0.0552242
-0.0461705
-0.0379894
-0.0307104
-0.0243404
-0.0188557
-0.0142138
-0.0103576
-0.00721441
-0.0047166
-0.00278113
-0.00135061
-0.000344354
0.000269897
0.000560417
0.000540883
0.000257268
-0.263846
-0.261318
-0.262903
-0.263809
-0.262644
-0.260581
-0.258659
-0.257027
-0.25512
-0.252737
-0.249936
-0.246756
-0.243171
-0.239145
-0.234645
-0.229635
-0.224079
-0.217939
-0.211184
-0.203792
-0.195751
-0.187065
-0.177753
-0.167857
-0.15744
-0.146588
-0.135403
-0.12399
-0.112452
-0.100945
-0.0896418
-0.0787115
-0.0682941
-0.0585153
-0.0494693
-0.0412322
-0.0338402
-0.0273135
-0.0216338
-0.0167751
-0.0126806
-0.0092971
-0.00654805
-0.00437396
-0.00269555
-0.00146406
-0.000605869
-9.77298e-05
0.000138627
9.28967e-05
-0.256249
-0.253802
-0.255756
-0.256867
-0.255878
-0.254174
-0.252599
-0.251083
-0.249363
-0.247255
-0.244755
-0.241861
-0.238549
-0.234801
-0.230594
-0.225896
-0.220672
-0.214889
-0.208518
-0.201539
-0.193938
-0.185717
-0.17689
-0.167493
-0.157579
-0.147224
-0.136521
-0.125567
-0.114454
-0.103315
-0.092314
-0.0816143
-0.0713545
-0.0616621
-0.0526337
-0.0443528
-0.0368614
-0.0301918
-0.0243308
-0.0192683
-0.0149475
-0.0113339
-0.00834292
-0.00593698
-0.00401733
-0.00256395
-0.0014667
-0.000741747
-0.000254557
-6.37542e-05
-0.249044
-0.246811
-0.249003
-0.250123
-0.249264
-0.247939
-0.246734
-0.245273
-0.243714
-0.241866
-0.239674
-0.237078
-0.234056
-0.230604
-0.2267
-0.222317
-0.217424
-0.211994
-0.205997
-0.199415
-0.192235
-0.184454
-0.176085
-0.167156
-0.157714
-0.147825
-0.137572
-0.127048
-0.116334
-0.105548
-0.0948395
-0.0843662
-0.0742641
-0.0646626
-0.0556595
-0.0473452
-0.0397664
-0.0329669
-0.026938
-0.0216846
-0.0171497
-0.0133167
-0.0100938
-0.00746374
-0.00531033
-0.00363977
-0.00230915
-0.00137011
-0.00063759
-0.000214013
-0.242264
-0.240382
-0.242669
-0.243632
-0.242911
-0.242033
-0.241284
-0.240194
-0.23855
-0.23685
-0.234918
-0.23259
-0.229845
-0.226676
-0.223063
-0.218982
-0.214409
-0.209313
-0.203672
-0.197465
-0.190679
-0.18331
-0.175367
-0.166874
-0.15787
-0.148412
-0.138576
-0.128448
-0.118105
-0.107652
-0.0972236
-0.0869697
-0.0770234
-0.0675151
-0.0585435
-0.050205
-0.04255
-0.0356333
-0.0294498
-0.0240182
-0.019282
-0.0152407
-0.0117964
-0.00895064
-0.00657158
-0.0046894
-0.00313165
-0.00198255
-0.00101037
-0.00035927
-0.235939
-0.234549
-0.236722
-0.237391
-0.236828
-0.236314
-0.235749
-0.234745
-0.23335
-0.231918
-0.230214
-0.228159
-0.22572
-0.222857
-0.219551
-0.215785
-0.211537
-0.206778
-0.201485
-0.195642
-0.189234
-0.182256
-0.174716
-0.166631
-0.158035
-0.14898
-0.139532
-0.129772
-0.119777
-0.109638
-0.0994771
-0.0894363
-0.079644
-0.0702314
-0.0612972
-0.0529433
-0.0452229
-0.0382007
-0.0318746
-0.0262768
-0.0213507
-0.0171111
-0.0134548
-0.0104007
-0.00780347
-0.00571464
-0.00393577
-0.00258055
-0.00137438
-0.000501646
-0.23014
-0.229373
-0.231109
-0.231463
-0.231248
-0.231207
-0.230985
-0.230348
-0.229278
-0.227772
-0.226135
-0.224287
-0.222093
-0.219487
-0.21645
-0.21297
-0.209019
-0.204572
-0.199605
-0.194101
-0.188046
-0.181434
-0.174267
-0.166561
-0.158343
-0.14966
-0.140569
-0.131145
-0.121466
-0.111618
-0.101707
-0.0918658
-0.0822172
-0.0728929
-0.0639915
-0.0556201
-0.0478344
-0.0407084
-0.0342432
-0.0284828
-0.0233719
-0.0189384
-0.015076
-0.0118177
-0.00900795
-0.00671587
-0.00472175
-0.00316394
-0.00172996
-0.000643733
-0.225079
-0.224937
-0.22553
-0.225345
-0.225361
-0.225489
-0.225347
-0.224902
-0.224137
-0.222981
-0.22162
-0.220033
-0.218124
-0.21582
-0.213094
-0.20993
-0.206299
-0.202177
-0.197544
-0.19238
-0.186672
-0.180414
-0.173605
-0.16626
-0.1584
-0.150066
-0.141309
-0.132198
-0.122808
-0.113229
-0.103558
-0.0939169
-0.0844206
-0.0752003
-0.0663526
-0.0579892
-0.0501664
-0.042967
-0.0363932
-0.0305007
-0.0252333
-0.0206328
-0.0165877
-0.013147
-0.0101428
-0.00766407
-0.00546771
-0.00372082
-0.00206682
-0.000784927
-0.221702
-0.222882
-0.222422
-0.222246
-0.222415
-0.222538
-0.222459
-0.222174
-0.221618
-0.220548
-0.219119
-0.217578
-0.215752
-0.21355
-0.210942
-0.207904
-0.204409
-0.200432
-0.195952
-0.19095
-0.185413
-0.179334
-0.172713
-0.165563
-0.157904
-0.149775
-0.141222
-0.132315
-0.123123
-0.113734
-0.104241
-0.0947611
-0.085403
-0.0762977
-0.067534
-0.0592288
-0.0514311
-0.0442336
-0.037631
-0.0316931
-0.0263545
-0.0216751
-0.0175292
-0.0139901
-0.0108666
-0.00827897
-0.00594954
-0.00408841
-0.00228109
-0.000880402
-0.218966
-0.220579
-0.220043
-0.21994
-0.220178
-0.22032
-0.22025
-0.21995
-0.219342
-0.218339
-0.217066
-0.215598
-0.213831
-0.21169
-0.209148
-0.20618
-0.20276
-0.198864
-0.194471
-0.189563
-0.184128
-0.178159
-0.171655
-0.16463
-0.157103
-0.149112
-0.140702
-0.131939
-0.12289
-0.113644
-0.104287
-0.0949369
-0.0856953
-0.0766918
-0.0680114
-0.0597716
-0.0520184
-0.0448479
-0.0382523
-0.0323071
-0.0269444
-0.0222319
-0.0180391
-0.01445
-0.0112648
-0.00861744
-0.00621633
-0.00428984
-0.00239955
-0.000930828
-0.215839
-0.217822
-0.217399
-0.21734
-0.217636
-0.217824
-0.217776
-0.217483
-0.21691
-0.216002
-0.214815
-0.21339
-0.211665
-0.209576
-0.20709
-0.204186
-0.200837
-0.197019
-0.192712
-0.187899
-0.182567
-0.176711
-0.17033
-0.163437
-0.156051
-0.148208
-0.139952
-0.131346
-0.122456
-0.113367
-0.104163
-0.0949584
-0.0858506
-0.0769662
-0.0683864
-0.0602282
-0.0525353
-0.0454056
-0.0388301
-0.0328884
-0.0275113
-0.0227727
-0.0185399
-0.0149044
-0.0116617
-0.00895533
-0.00648476
-0.00449136
-0.00251997
-0.000979905
-0.21273
-0.214972
-0.214704
-0.214666
-0.215009
-0.215252
-0.215243
-0.214983
-0.214465
-0.213638
-0.212516
-0.211136
-0.209455
-0.207419
-0.204993
-0.202155
-0.198879
-0.195143
-0.190925
-0.18621
-0.180985
-0.175245
-0.16899
-0.162232
-0.154989
-0.147297
-0.139197
-0.130751
-0.122021
-0.113091
-0.104042
-0.0949849
-0.0860125
-0.0772484
-0.0687705
-0.060695
-0.0530635
-0.0459753
-0.0394206
-0.0334825
-0.0280913
-0.0233262
-0.0190528
-0.0153698
-0.0120686
-0.00930159
-0.00676009
-0.00469765
-0.00264385
-0.00102905
-0.209538
-0.212038
-0.211955
-0.211942
-0.212321
-0.212624
-0.212664
-0.212447
-0.21198
-0.211221
-0.210166
-0.208839
-0.20721
-0.205231
-0.202869
-0.2001
-0.196901
-0.193248
-0.189123
-0.184508
-0.179393
-0.173772
-0.167645
-0.161024
-0.153926
-0.146387
-0.138445
-0.13016
-0.121591
-0.112822
-0.103929
-0.0950206
-0.0861845
-0.0775415
-0.0691666
-0.0611745
-0.0536052
-0.046559
-0.0400255
-0.0340911
-0.0286855
-0.0238934
-0.0195787
-0.0158471
-0.0124861
-0.00965675
-0.00704262
-0.00490897
-0.00277116
-0.0010783
-0.206259
-0.209016
-0.20913
-0.20915
-0.20956
-0.209924
-0.210021
-0.209853
-0.209436
-0.208741
-0.207755
-0.206486
-0.204913
-0.202995
-0.200699
-0.198003
-0.194883
-0.191317
-0.187286
-0.182774
-0.177771
-0.172271
-0.166274
-0.159793
-0.152843
-0.145458
-0.137676
-0.129554
-0.12115
-0.112544
-0.103809
-0.095051
-0.0863533
-0.0778337
-0.0695638
-0.0616572
-0.054152
-0.0471496
-0.0406388
-0.0347091
-0.02929
-0.024471
-0.0201151
-0.0163342
-0.0129127
-0.0100196
-0.00733157
-0.00512463
-0.00290162
-0.00112746
-0.202962
-0.20592
-0.206227
-0.206293
-0.206728
-0.207153
-0.207313
-0.207198
-0.206834
-0.206203
-0.205286
-0.204079
-0.202565
-0.20071
-0.198484
-0.195863
-0.192824
-0.189347
-0.185412
-0.181006
-0.176117
-0.17074
-0.164876
-0.158536
-0.151737
-0.144509
-0.136889
-0.128933
-0.120695
-0.112253
-0.103679
-0.0950734
-0.0865162
-0.078122
-0.0699594
-0.0621404
-0.0547015
-0.0477446
-0.0412582
-0.0353344
-0.0299029
-0.0250575
-0.0206606
-0.01683
-0.0133474
-0.0103893
-0.00762643
-0.00534415
-0.00303507
-0.00117638
-0.199654
-0.202753
-0.203249
-0.203374
-0.203835
-0.204316
-0.204544
-0.204488
-0.204179
-0.203612
-0.202763
-0.201621
-0.20017
-0.198381
-0.196227
-0.193683
-0.190728
-0.187342
-0.183506
-0.179208
-0.174435
-0.169184
-0.163455
-0.157258
-0.150611
-0.143542
-0.136086
-0.128297
-0.120227
-0.111952
-0.10354
-0.0950882
-0.0866733
-0.0784064
-0.070353
-0.0626234
-0.0552528
-0.0483432
-0.0418828
-0.0359662
-0.0305233
-0.025652
-0.0212144
-0.0173337
-0.0137897
-0.0107653
-0.0079268
-0.00556718
-0.00317134
-0.00122501
-0.196316
-0.199524
-0.200204
-0.200401
-0.200887
-0.201421
-0.201718
-0.201726
-0.201477
-0.200972
-0.200191
-0.199117
-0.197732
-0.196012
-0.193931
-0.191467
-0.188598
-0.185306
-0.181571
-0.177382
-0.172728
-0.167604
-0.162012
-0.155961
-0.149466
-0.142558
-0.135268
-0.127647
-0.119747
-0.11164
-0.103392
-0.0950952
-0.0868241
-0.0786859
-0.0707435
-0.0631052
-0.0558047
-0.0489439
-0.0425113
-0.036603
-0.0311499
-0.0262531
-0.0217754
-0.0178443
-0.0142388
-0.011147
-0.00823218
-0.00579328
-0.00331022
-0.00127328
-0.192952
-0.196245
-0.1971
-0.197376
-0.197891
-0.198474
-0.198841
-0.198917
-0.19873
-0.198289
-0.197576
-0.19657
-0.195254
-0.193606
-0.191602
-0.18922
-0.186439
-0.183242
-0.179611
-0.175533
-0.170999
-0.166005
-0.160551
-0.154646
-0.148307
-0.141559
-0.134436
-0.126985
-0.119256
-0.111318
-0.103234
-0.0950939
-0.0869679
-0.0789598
-0.0711298
-0.0635843
-0.0563556
-0.0495452
-0.0431419
-0.0372433
-0.0317812
-0.0268596
-0.0223423
-0.0183607
-0.0146937
-0.0115335
-0.00854194
-0.00602196
-0.00345142
-0.00132113
-0.189574
-0.192926
-0.193943
-0.194307
-0.194856
-0.195485
-0.19592
-0.196066
-0.195944
-0.195567
-0.194923
-0.193988
-0.192743
-0.191169
-0.189243
-0.186945
-0.184255
-0.181155
-0.177629
-0.173664
-0.169252
-0.164388
-0.159073
-0.153317
-0.147133
-0.140548
-0.133592
-0.126312
-0.118754
-0.110986
-0.103067
-0.0950841
-0.0871038
-0.0792268
-0.0715106
-0.0640592
-0.0569039
-0.0501454
-0.0437731
-0.0378853
-0.0324156
-0.0274699
-0.0229139
-0.0188816
-0.0151533
-0.0119239
-0.00885539
-0.00625266
-0.0035946
-0.0013685
-0.186191
-0.189574
-0.190743
-0.191201
-0.191787
-0.192461
-0.192962
-0.19318
-0.193125
-0.192814
-0.192238
-0.191375
-0.190204
-0.188706
-0.18686
-0.184648
-0.18205
-0.179049
-0.175629
-0.171779
-0.16749
-0.162758
-0.157584
-0.151976
-0.145948
-0.139526
-0.132738
-0.125629
-0.118243
-0.110644
-0.102891
-0.0950652
-0.0872313
-0.0794861
-0.0718847
-0.0645284
-0.0574479
-0.0507428
-0.044403
-0.0385273
-0.0330512
-0.0280822
-0.0234884
-0.0194056
-0.0156164
-0.0123171
-0.00917172
-0.00648477
-0.00373939
-0.00141536
-0.182805
-0.1862
-0.187509
-0.188065
-0.188695
-0.189411
-0.189976
-0.190267
-0.19028
-0.190036
-0.18953
-0.188739
-0.187643
-0.186223
-0.18446
-0.182335
-0.179831
-0.17693
-0.173618
-0.169884
-0.165719
-0.161119
-0.156086
-0.150627
-0.144756
-0.138496
-0.131876
-0.124937
-0.117722
-0.110294
-0.102705
-0.0950372
-0.0873498
-0.0797366
-0.0722506
-0.0649904
-0.0579859
-0.0513353
-0.0450295
-0.0391672
-0.0336862
-0.0286948
-0.0240642
-0.0199312
-0.0160816
-0.0127119
-0.00949
-0.0067176
-0.00388531
-0.00146168
-0.179429
-0.182814
-0.184252
-0.18491
-0.185589
-0.186347
-0.186973
-0.187335
-0.187419
-0.187243
-0.186806
-0.186088
-0.185069
-0.183728
-0.182049
-0.180013
-0.177603
-0.174804
-0.171601
-0.167983
-0.163942
-0.159476
-0.154583
-0.149273
-0.143558
-0.137461
-0.131008
-0.124239
-0.117195
-0.109935
-0.102511
-0.0949999
-0.0874586
-0.0799774
-0.0726072
-0.0654437
-0.0585161
-0.051921
-0.0456505
-0.0398028
-0.0343183
-0.0293056
-0.0246394
-0.0204566
-0.0165475
-0.0131072
-0.00980919
-0.00695042
-0.00403186
-0.00150741
-0.176076
-0.179432
-0.180985
-0.181747
-0.18248
-0.18328
-0.183963
-0.184395
-0.18455
-0.184443
-0.184076
-0.183432
-0.18249
-0.18123
-0.179635
-0.177689
-0.175375
-0.172678
-0.169584
-0.166083
-0.162167
-0.157833
-0.153081
-0.14792
-0.14236
-0.136424
-0.130137
-0.123537
-0.116662
-0.10957
-0.102309
-0.0949533
-0.0875574
-0.0802076
-0.072953
-0.0658864
-0.0590364
-0.0524978
-0.0462639
-0.0404319
-0.0349454
-0.0299123
-0.0252118
-0.0209798
-0.0170122
-0.0135013
-0.0101281
-0.00718242
-0.00417844
-0.00155251
-0.17276
-0.176067
-0.177721
-0.178587
-0.17938
-0.180223
-0.180961
-0.18146
-0.181686
-0.181649
-0.181352
-0.180781
-0.179916
-0.178737
-0.177228
-0.175372
-0.173154
-0.17056
-0.167575
-0.164191
-0.160399
-0.156197
-0.151585
-0.146571
-0.141165
-0.135389
-0.129266
-0.122833
-0.116126
-0.109199
-0.102099
-0.0948977
-0.0876457
-0.0804263
-0.0732868
-0.0663169
-0.0595449
-0.0530635
-0.0468671
-0.041052
-0.0355648
-0.0305125
-0.0257791
-0.0214989
-0.017474
-0.0138928
-0.0104455
-0.00741272
-0.0043244
-0.00159692
-0.169495
-0.172737
-0.174477
-0.175446
-0.176302
-0.177189
-0.177979
-0.178543
-0.178838
-0.178871
-0.178644
-0.178147
-0.177359
-0.176262
-0.174838
-0.173073
-0.170951
-0.168458
-0.165583
-0.162314
-0.158646
-0.154575
-0.150102
-0.145233
-0.139979
-0.134361
-0.128399
-0.12213
-0.115588
-0.108824
-0.101883
-0.0948333
-0.0877232
-0.0806328
-0.0736073
-0.0667336
-0.0600396
-0.0536155
-0.0474576
-0.0416604
-0.0361738
-0.0311036
-0.0263389
-0.0220114
-0.0179308
-0.0142799
-0.0107599
-0.00764033
-0.00446902
-0.00164055
-0.1663
-0.169458
-0.17127
-0.17234
-0.173263
-0.174195
-0.175034
-0.175659
-0.176023
-0.176125
-0.175968
-0.175543
-0.174832
-0.173816
-0.172477
-0.170802
-0.168775
-0.166384
-0.163616
-0.160463
-0.156917
-0.152975
-0.148637
-0.143912
-0.138807
-0.133343
-0.12754
-0.121432
-0.115051
-0.108447
-0.101662
-0.0947607
-0.08779
-0.0808262
-0.0739132
-0.0671346
-0.0605181
-0.0541515
-0.0480327
-0.0422542
-0.0367697
-0.0316827
-0.0268884
-0.0225149
-0.0183802
-0.0146608
-0.0110697
-0.00786418
-0.00461153
-0.00168328
-0.16319
-0.166251
-0.16812
-0.169287
-0.170279
-0.171257
-0.172143
-0.172826
-0.173255
-0.173425
-0.173337
-0.172984
-0.172349
-0.171412
-0.170158
-0.168572
-0.166639
-0.164348
-0.161687
-0.158646
-0.155219
-0.151404
-0.1472
-0.142614
-0.137656
-0.132342
-0.126694
-0.120742
-0.114519
-0.10807
-0.101437
-0.0946806
-0.087846
-0.0810061
-0.0742033
-0.0675182
-0.0609783
-0.0546689
-0.0485894
-0.0428304
-0.0373491
-0.0322468
-0.0274245
-0.0230066
-0.0188198
-0.0150333
-0.0113731
-0.00808309
-0.00475106
-0.00172495
-0.160187
-0.163137
-0.165049
-0.166307
-0.167369
-0.168395
-0.169325
-0.170062
-0.170554
-0.17079
-0.17077
-0.170487
-0.169925
-0.169067
-0.167895
-0.166396
-0.164556
-0.162363
-0.159806
-0.156875
-0.153565
-0.149873
-0.145799
-0.141349
-0.136532
-0.131364
-0.125865
-0.120066
-0.113995
-0.107697
-0.10121
-0.0945941
-0.0878914
-0.0811718
-0.0744763
-0.0678825
-0.0614178
-0.0551649
-0.0491248
-0.0433857
-0.0379088
-0.0327925
-0.0279441
-0.0234836
-0.0192469
-0.0153951
-0.0116682
-0.00829574
-0.0048867
-0.00176536
-0.15731
-0.160141
-0.16208
-0.163422
-0.164556
-0.165629
-0.166601
-0.167389
-0.16794
-0.168239
-0.168285
-0.16807
-0.167579
-0.166796
-0.165705
-0.164291
-0.162541
-0.160443
-0.157986
-0.155163
-0.151966
-0.148393
-0.144444
-0.140124
-0.135443
-0.130416
-0.125061
-0.119407
-0.113482
-0.107329
-0.100984
-0.0945025
-0.0879266
-0.081323
-0.0747312
-0.0682258
-0.0618343
-0.0556365
-0.0496355
-0.0439166
-0.038445
-0.0333161
-0.0284436
-0.0239425
-0.0196583
-0.0157438
-0.0119529
-0.00850069
-0.00501746
-0.00180426
-0.154581
-0.157285
-0.15924
-0.160658
-0.16186
-0.162981
-0.163994
-0.164828
-0.165434
-0.165794
-0.165902
-0.165752
-0.165331
-0.16462
-0.163606
-0.162274
-0.16061
-0.158603
-0.156243
-0.153522
-0.150433
-0.146974
-0.143145
-0.13895
-0.134399
-0.129506
-0.124288
-0.118773
-0.112987
-0.106971
-0.10076
-0.0944073
-0.0879524
-0.0814594
-0.0749667
-0.0685462
-0.0622251
-0.0560809
-0.050118
-0.0444193
-0.0389539
-0.0338138
-0.0289191
-0.0243797
-0.0200508
-0.0160766
-0.0122248
-0.0086963
-0.00514226
-0.00184134
-0.152022
-0.154597
-0.156554
-0.158041
-0.15931
-0.160478
-0.161529
-0.162405
-0.163061
-0.163477
-0.163646
-0.163557
-0.163201
-0.16256
-0.161619
-0.160364
-0.158782
-0.156862
-0.154594
-0.15197
-0.148983
-0.145632
-0.141915
-0.137839
-0.133409
-0.128642
-0.123553
-0.118169
-0.112514
-0.106627
-0.100542
-0.0943104
-0.0879695
-0.0815809
-0.0751819
-0.0688418
-0.0625878
-0.0564947
-0.0505686
-0.0448899
-0.0394312
-0.0342812
-0.0293664
-0.0247914
-0.0204209
-0.0163903
-0.0124814
-0.00888079
-0.00525995
-0.00187625
-0.149657
-0.152104
-0.154055
-0.1556
-0.156932
-0.158146
-0.159233
-0.160148
-0.160849
-0.161317
-0.16154
-0.16151
-0.161214
-0.160638
-0.159765
-0.158582
-0.157077
-0.155238
-0.153056
-0.150522
-0.147631
-0.14438
-0.140768
-0.136801
-0.132486
-0.127835
-0.122866
-0.117602
-0.112068
-0.106302
-0.100334
-0.0942141
-0.087979
-0.0816874
-0.0753757
-0.0691106
-0.0629194
-0.0568744
-0.0509833
-0.0453238
-0.0398722
-0.0347137
-0.0297809
-0.0251732
-0.0207645
-0.0166817
-0.0127199
-0.00905213
-0.00536926
-0.00190857
-0.147514
-0.149836
-0.151773
-0.153369
-0.154759
-0.156016
-0.157137
-0.158086
-0.158828
-0.159342
-0.159616
-0.159639
-0.159398
-0.15888
-0.15807
-0.156954
-0.155519
-0.153754
-0.15165
-0.149199
-0.146395
-0.143235
-0.13972
-0.135852
-0.13164
-0.127096
-0.122235
-0.117082
-0.111658
-0.106
-0.100139
-0.0941211
-0.0879822
-0.081779
-0.075547
-0.0693505
-0.0632169
-0.0572162
-0.0513576
-0.0457162
-0.0402718
-0.0351061
-0.0301575
-0.0255204
-0.0210773
-0.016947
-0.0129372
-0.00920809
-0.00546881
-0.00193783
-0.145622
-0.147828
-0.149746
-0.151384
-0.152826
-0.154124
-0.155275
-0.156254
-0.157031
-0.157586
-0.157904
-0.157974
-0.157783
-0.157318
-0.156563
-0.155505
-0.154133
-0.152434
-0.1504
-0.148023
-0.145296
-0.142218
-0.138787
-0.135008
-0.130887
-0.126438
-0.121673
-0.116617
-0.111291
-0.105729
-0.0999621
-0.0940343
-0.0879807
-0.0818558
-0.0756946
-0.0695591
-0.0634769
-0.0575159
-0.0516867
-0.0460618
-0.0406243
-0.0354526
-0.0304906
-0.0258276
-0.0213544
-0.0171819
-0.0131299
-0.00934617
-0.00555707
-0.0019635
-0.144012
-0.146115
-0.148012
-0.149685
-0.151173
-0.152506
-0.153685
-0.15469
-0.155496
-0.156085
-0.156441
-0.156551