/*--------------------------------*- C++ -*----------------------------------*\
  =========                 |
  \\      /  F ield         | OpenFOAM: The Open Source CFD Toolbox
   \\    /   O peration     | Website:  https://openfoam.org
    \\  /    A nd           | Version:  7
     \\/     M anipulation  |
\*---------------------------------------------------------------------------*/
FoamFile
{
    version     2.0;
    format      ascii;
    class       surfaceScalarField;
    location    "20";
    object      phi;
}
// * * * * * * * * * * * * * * * * * * * * * * * * * * * * * * * * * * * * * //

dimensions      [0 3 -1 0 0 0 0];

internalField   nonuniform List<scalar> 
11919
(
-0.000777891
0.000127372
-6.66114e-09
-0.000911494
0.000133609
-6.82118e-09
-0.00105148
0.000139995
-6.64427e-09
-0.00119788
0.000146408
-5.98522e-09
-0.00135053
0.000152646
-4.68778e-09
-0.00150894
0.000158413
-2.59463e-09
-0.00167227
0.000163336
4.30634e-10
-0.00183904
0.000166764
4.4751e-09
-0.0020068
0.000167745
9.56524e-09
-0.00217409
0.000167276
1.56033e-08
-0.00233406
0.000159948
2.24328e-08
-0.0024932
0.00015911
2.95499e-08
0.0001422
3.68659e-08
-0.00263543
-0.000753753
0.000248306
-0.000879158
0.000259014
-0.00100879
0.000269623
-0.0011422
0.000279822
-0.00127869
0.000289141
-0.00141721
0.000296923
-0.00155625
0.000302384
-0.00169378
0.000304288
-0.00182612
0.000300087
-0.00195262
0.000293778
-0.00206109
0.000268418
-0.00216487
0.000262886
0.000208496
-0.00223116
-0.000706209
0.000356596
-0.000815544
0.00036835
-0.000924926
0.000379004
-0.00103306
0.000387952
-0.00113825
0.000394336
-0.00123836
0.00039703
-0.00133072
0.000394748
-0.00141242
0.000385989
-0.00147715
0.00036481
-0.00152733
0.000343966
-0.00153943
0.000280518
-0.00154028
0.000263735
0.000140792
-0.00147258
-0.000636582
0.000446425
-0.000722542
0.00045431
-0.000802614
0.000459076
-0.000874339
0.000459678
-0.000934737
0.000454734
-0.000980242
0.000442536
-0.00100658
0.000421088
-0.00101016
0.000389567
-0.000980088
0.000334737
-0.000925147
0.000289026
-0.000807374
0.000162745
-0.000662638
0.000118998
-8.9863e-05
-0.000431982
-0.000546591
-0.000602538
0.000510256
-0.000645166
0.000501704
-0.00067066
0.000485172
-0.000674533
0.000458606
-0.000651653
0.000419656
-0.000595747
0.000365183
-0.00050291
0.00029673
-0.000358107
0.000189934
-0.000167511
9.84304e-05
9.00262e-05
-9.4793e-05
0.000420067
-0.000211043
-0.000508686
0.00083889
-0.000457952
0.000530132
-0.000455761
0.000499513
-0.000426191
0.000455603
-0.000363096
0.000395511
-0.000259715
0.000316275
-0.00010826
0.000213728
9.97707e-05
8.86987e-05
0.000373121
-8.34167e-05
0.000714358
-0.000242806
0.00115426
-0.000534691
0.00165822
-0.000715006
-0.00115355
0.00230308
-0.000290723
0.000508187
-0.000236655
0.000445445
-0.000143517
0.000362464
-3.43418e-06
0.000255428
0.000192455
0.000120386
0.000452711
-4.65284e-05
0.0007878
-0.00024639
0.00120849
-0.000504105
0.00171726
-0.000751579
0.00234401
-0.00116144
0.00304457
-0.00141557
-0.00202681
0.00391783
-0.000101785
0.000438531
1.15479e-05
0.000332112
0.000177319
0.000196693
0.000405239
2.75079e-05
0.000706141
-0.000180516
0.00108813
-0.000428517
0.00156734
-0.000725603
0.00214392
-0.00108068
0.00283387
-0.00144153
0.00364809
-0.00197566
0.00454574
-0.00231322
-0.00310132
0.00562025
0.000109425
0.000314571
0.000290454
0.000151083
0.000539256
-5.2109e-05
0.000867071
-0.000300306
0.00128652
-0.000599965
0.00180363
-0.000945633
0.00243779
-0.00135976
0.00317746
-0.00182034
0.00404643
-0.00231051
0.0050269
-0.00295612
0.00610261
-0.00338892
-0.00430619
0.00730748
0.000345324
0.000128424
0.000604073
-0.000107666
0.000947827
-0.000395864
0.00138867
-0.000741152
0.00193851
-0.0011498
0.00260141
-0.00160853
0.00338985
-0.00214819
0.00428627
-0.00271677
0.00530899
-0.00333323
0.00640507
-0.0040522
0.00760383
-0.00458768
-0.00553639
0.00883403
0.00061026
0.000958308
-0.000455714
0.00140951
-0.000847068
0.0019749
-0.00130654
0.00266094
-0.00183584
0.00346886
-0.00241645
0.00439333
-0.00307266
0.00541451
-0.00373796
0.00653353
-0.00445224
0.00767218
-0.00519085
0.00889551
-0.00581101
-0.00668502
0.0100441
0.00135932
-0.000905042
0.00192816
-0.00141591
0.00262262
-0.002001
0.0034385
-0.00265173
0.00436929
-0.00334724
0.00538863
-0.004092
0.00647387
-0.0048232
0.00760354
-0.00558191
0.00870319
-0.0062905
0.00983667
-0.0069445
-0.00767373
0.0108254
0.00181029
-0.00146512
0.00249969
-0.00210531
0.00331387
-0.00281518
0.00423432
-0.00357218
0.00524102
-0.00435394
0.00629181
-0.00514279
0.00736198
-0.00589337
0.0084141
-0.00663402
0.00940304
-0.00727944
0.0103684
-0.00790983
-0.00848705
0.0111817
0.00230693
-0.00213819
0.00310644
-0.00290482
0.00401205
-0.00372079
0.00499033
-0.00455046
0.00600793
-0.00537154
0.00701771
-0.00615258
0.00799858
-0.00687424
0.0089136
-0.00754904
0.0097541
-0.00811994
0.0105398
-0.00869558
-0.00916045
0.0112132
0.00283308
0.00371461
-0.00378635
0.00466486
-0.00467104
0.00564021
-0.00552581
0.00660202
-0.00633335
0.00751146
-0.00706202
0.00835898
-0.00772176
0.00912177
-0.00831183
0.00982153
-0.00881971
0.0104671
-0.00934112
-0.00974413
0.0110507
0.00427842
-0.00470558
0.0052168
-0.00560942
0.00613065
-0.00643965
0.00698801
-0.00719072
0.00776879
-0.0078428
0.00847828
-0.00843125
0.00911093
-0.00894448
0.00970603
-0.00941481
0.0102599
-0.009895
-0.0102759
0.0107917
0.0047517
0.00562675
-0.00648447
0.0064394
-0.0072523
0.00717348
-0.0079248
0.00782979
-0.00849911
0.00842409
-0.00902555
0.00896349
-0.00948388
0.00949001
-0.00994133
0.00998533
-0.0103903
-0.0107778
0.0104873
0.00588063
-0.0072631
0.00657867
-0.00795034
0.00719731
-0.00854343
0.0077523
-0.0090541
0.00826205
-0.0095353
0.00874019
-0.00996203
0.00922015
-0.0104213
0.00967535
-0.0108455
-0.0112631
0.0101606
0.00599114
0.00658261
-0.00854181
0.0071074
-0.00906821
0.00758747
-0.00953418
0.00803836
-0.00998619
0.00847593
-0.0103996
0.00891878
-0.0108641
0.00934464
-0.0112714
-0.0117406
0.00982218
0.00649004
-0.00904525
0.00694418
-0.00952236
0.00737054
-0.00996054
0.00778028
-0.0103959
0.00818879
-0.0108081
0.00859831
-0.0112737
0.00899601
-0.0116691
-0.0122182
0.0094736
0.00633126
0.00673371
-0.00992481
0.00712096
-0.0103478
0.00750052
-0.0107755
0.00788512
-0.0111927
0.00826862
-0.0116571
0.00865966
-0.0120601
-0.0126
0.00904143
0.00649771
-0.0102888
0.00685484
-0.0107049
0.00721006
-0.0111307
0.00757188
-0.0115545
0.00793225
-0.0120175
0.00830953
-0.0124374
-0.012972
0.00868152
0.00624459
0.00657688
-0.0110372
0.00691041
-0.0114642
0.00725048
-0.0118946
0.00759314
-0.0123602
0.00794547
-0.0127897
-0.0133254
0.00829886
0.00629049
0.00660337
-0.0117771
0.00692339
-0.0122146
0.0072446
-0.0126814
0.00757846
-0.0131236
-0.0136633
0.00791644
0.00629039
0.00658942
-0.0125136
0.00689139
-0.0129834
0.00720521
-0.0134374
-0.0139767
0.00751859
0.0062503
0.00653158
-0.0132646
0.00682361
-0.0137294
-0.0142699
0.00711683
0.00616629
0.00643683
-0.014
-0.0145398
0.00670666
0.00604356
0.00629079
0.00604357
0.014
0.0145398
0.00629079
0.00616629
0.0132646
0.00643683
0.0137294
0.0142699
0.00670666
0.0062503
0.0125136
0.00653158
0.0129834
0.00682361
0.0134374
0.0139767
0.00711684
0.00629039
0.0117771
0.00658943
0.0122146
0.00689139
0.0126814
0.00720522
0.0131236
0.0136633
0.00751859
0.00629049
0.0110372
0.00660337
0.0114642
0.00692339
0.0118946
0.00724461
0.0123602
0.00757847
0.0127897
0.0133254
0.00791645
0.00624459
0.0102887
0.00657688
0.0107049
0.00691041
0.0111307
0.00725048
0.0115545
0.00759314
0.0120175
0.00794548
0.0124374
0.012972
0.00829886
0.00649771
0.0099248
0.00685484
0.0103478
0.00721007
0.0107755
0.00757188
0.0111927
0.00793226
0.0116571
0.00830953
0.0120601
0.0126
0.00868153
0.00633126
0.00904525
0.00673371
0.00952235
0.00712096
0.00996053
0.00750052
0.0103959
0.00788512
0.0108081
0.00826862
0.0112736
0.00865966
0.0116691
0.0122182
0.00904144
0.00649004
0.00854181
0.00694418
0.00906821
0.00737054
0.00953417
0.00778028
0.00998618
0.00818879
0.0103996
0.00859831
0.0108641
0.00899601
0.0112714
0.0117406
0.0094736
0.00599114
0.00726309
0.00658261
0.00795033
0.0071074
0.00854342
0.00758747
0.00905409
0.00803836
0.00953528
0.00847593
0.00996202
0.00891878
0.0104213
0.00934464
0.0108455
0.0112631
0.00982218
0.00588063
0.00648447
0.00657867
0.00725229
0.00719731
0.00792479
0.0077523
0.0084991
0.00826205
0.00902554
0.0087402
0.00948387
0.00922015
0.00994132
0.00967535
0.0103903
0.0107778
0.0101606
0.00475169
0.00470557
0.00562675
0.00560941
0.00643939
0.00643964
0.00717347
0.00719071
0.00782979
0.00784278
0.00842409
0.00843123
0.00896349
0.00894446
0.00949001
0.0094148
0.00998533
0.00989499
0.0102759
0.0104873
0.00427842
0.00378635
0.0052168
0.00467104
0.00613064
0.0055258
0.00698801
0.00633334
0.00776879
0.007062
0.00847828
0.00772174
0.00911093
0.00831181
0.00970604
0.0088197
0.0102599
0.0093411
0.00974412
0.0107917
0.00283307
0.00213819
0.0037146
0.00290482
0.00466486
0.00372079
0.0056402
0.00455046
0.00660201
0.00537153
0.00751146
0.00615256
0.00835898
0.00687422
0.00912177
0.00754902
0.00982154
0.00811992
0.0104671
0.00869556
0.00916044
0.0110508
0.00230692
0.00146512
0.00310643
0.00210531
0.00401204
0.00281518
0.00499032
0.00357218
0.00600792
0.00435392
0.00701771
0.00514278
0.00799857
0.00589335
0.0089136
0.006634
0.0097541
0.00727942
0.0105399
0.00790981
0.00848703
0.0112133
0.00181028
0.000905046
0.00249968
0.00141591
0.00331386
0.002001
0.00423431
0.00265173
0.00524101
0.00334723
0.0062918
0.00409198
0.00736197
0.00482318
0.00841409
0.00558188
0.00940304
0.00629047
0.0103684
0.00694447
0.0076737
0.0111817
0.00135931
0.000455719
0.00192815
0.000847071
0.0026226
0.00130654
0.00343849
0.00183584
0.00436928
0.00241644
0.00538862
0.00307265
0.00647386
0.00373793
0.00760353
0.00445221
0.00870318
0.00519082
0.00983667
0.00581098
0.00668499
0.0108254
0.000610253
-0.000128417
0.0009583
0.000107672
0.0014095
0.000395868
0.00197489
0.000741154
0.00266093
0.0011498
0.00346884
0.00160853
0.00439332
0.00214818
0.0054145
0.00271675
0.00653351
0.0033332
0.00767216
0.00405217
0.0088955
0.00458764
0.00553635
0.0100441
0.000345318
-0.000314563
0.000604065
-0.000151075
0.000947818
5.21151e-05
0.00138866
0.00030031
0.0019385
0.000599965
0.0026014
0.000945627
0.00338983
0.00135975
0.00428626
0.00182032
0.00530897
0.00231048
0.00640505
0.00295609
0.00760381
0.00338888
0.00430614
0.00883402
0.000109418
-0.000438522
0.000290447
-0.000332104
0.000539247
-0.000196686
0.00086706
-2.75028e-05
0.00128651
0.000180518
0.00180362
0.000428514
0.00243777
0.000725592
0.00317744
0.00108066
0.00404642
0.00144151
0.00502688
0.00197562
0.00610259
0.00231317
0.00310127
0.00730746
-0.000101791
-0.000508176
1.15407e-05
-0.000445435
0.000177311
-0.000362456
0.000405229
-0.000255422
0.00070613
-0.000120383
0.00108812
4.65259e-05
0.00156733
0.00024638
0.0021439
0.000504087
0.00283386
0.000751551
0.00364808
0.0011614
0.00454573
0.00141552
0.00202676
0.00562024
-0.000290729
-0.000530121
-0.000236662
-0.000499502
-0.000143524
-0.000455593
-3.44251e-06
-0.000395504
0.000192446
-0.000316271
0.000452701
-0.00021373
0.000787789
-8.87073e-05
0.00120848
8.33997e-05
0.00171725
0.000242779
0.002344
0.000534654
0.00304456
0.000714957
0.00115349
0.00391782
-0.000457956
-0.000510244
-0.000455766
-0.000501692
-0.000426197
-0.000485162
-0.000363103
-0.000458598
-0.000259722
-0.000419651
-0.000108268
-0.000365184
9.97622e-05
-0.000296738
0.000373113
-0.000189951
0.000714349
-9.84582e-05
0.00115425
9.47545e-05
0.00165821
0.000210992
0.000508626
0.00230308
-0.000546594
-0.000446413
-0.000602542
-0.000454297
-0.00064517
-0.000459064
-0.000670665
-0.000459667
-0.000674538
-0.000454725
-0.000651659
-0.000442531
-0.000595754
-0.000421089
-0.000502916
-0.000389575
-0.000358112
-0.000334755
-0.000167517
-0.000289054
9.00228e-05
-0.000162785
0.000420066
-0.000119051
8.97986e-05
0.000838893
-0.000636585
-0.000356584
-0.000722545
-0.000368337
-0.000802617
-0.000378991
-0.000874343
-0.000387941
-0.000934741
-0.000394327
-0.000980247
-0.000397025
-0.00100659
-0.000394748
-0.00101017
-0.000385998
-0.000980092
-0.000364828
-0.00092515
-0.000343995
-0.000807376
-0.000280559
-0.000662637
-0.000263789
-0.000140859
-0.00043198
-0.000706211
-0.000248292
-0.000815547
-0.000259001
-0.000924928
-0.00026961
-0.00103306
-0.000279811
-0.00113825
-0.000289132
-0.00123836
-0.000296918
-0.00133072
-0.000302385
-0.00141243
-0.000304297
-0.00147715
-0.000300105
-0.00152733
-0.000293809
-0.00153943
-0.000268461
-0.00154028
-0.000262943
-0.000208566
-0.00147257
-0.000753754
-0.000127359
-0.00087916
-0.000133596
-0.00100879
-0.000139982
-0.0011422
-0.000146397
-0.0012787
-0.000152637
-0.00141721
-0.000158408
-0.00155626
-0.000163336
-0.00169378
-0.000166773
-0.00182612
-0.000167764
-0.00195262
-0.000167307
-0.00206109
-0.000159993
-0.00216487
-0.000159169
-0.000142272
-0.00223116
-0.000777891
-0.000911494
-0.00105148
-0.00119789
-0.00135053
-0.00150894
-0.00167227
-0.00183904
-0.0020068
-0.00217409
-0.00233406
-0.0024932
-0.00263543
-0.00264719
1.17344e-05
2.03485e-08
-0.00265815
1.09397e-05
2.21328e-08
-0.00266709
8.91685e-06
2.37408e-08
-0.00267371
6.59336e-06
2.4949e-08
-0.00267756
3.82874e-06
2.58931e-08
-0.002678
4.11521e-07
2.69145e-08
-0.00267482
-3.21115e-06
2.59509e-08
-0.00266724
-7.60295e-06
2.48242e-08
-0.00265442
-1.28382e-05
2.36321e-08
-0.00263545
-1.89975e-05
2.18152e-08
-0.00260928
-2.61836e-05
1.91909e-08
-0.00257479
-3.45079e-05
1.56854e-08
-0.00253073
-4.40779e-05
1.12661e-08
-0.00247579
-5.49434e-05
5.85117e-09
-0.00240854
-6.72437e-05
-4.6331e-10
-0.0023275
-8.10347e-05
-7.53257e-09
-0.00223114
-9.63484e-05
-1.53014e-08
-0.00211794
-0.000113177
-2.35237e-08
-0.00198644
-0.000131463
-3.19215e-08
-0.00183531
-0.000151092
-4.01589e-08
-0.0016634
-0.000171866
-4.78517e-08
-0.00146986
-0.000193478
-5.45431e-08
-0.00125387
-0.000215936
-5.95102e-08
-0.00101579
-0.000238017
-6.28493e-08
-0.000755764
-0.000259961
-6.38564e-08
-0.000474629
-0.000281072
-6.22483e-08
-0.000173353
-0.000301219
-5.78575e-08
0.00014552
-0.000318822
-5.07271e-08
0.000479966
-0.000334405
-4.10792e-08
0.00082726
-0.000347265
-2.92828e-08
0.00118436
-0.000357082
-1.58841e-08
0.0015478
-0.000363439
-1.56946e-09
0.0019143
-0.000366512
1.25877e-08
0.00228016
-0.00036589
2.60074e-08
0.00264249
-0.00036237
3.78165e-08
0.00299769
-0.000355244
4.72147e-08
0.0033439
-0.000346267
5.38049e-08
0.00367769
-0.000333845
5.70926e-08
0.00399888
-0.000321242
5.71486e-08
0.00430388
-0.000305055
5.39959e-08
0.00459478
-0.000290951
4.79315e-08
0.00486715
-0.00027241
3.98565e-08
0.00512601
-0.000258889
2.94802e-08
0.00536496
-0.000238963
1.93928e-08
0.00559293
-0.000227982
7.18751e-09
0.00580011
-0.000207176
-1.45083e-09
0.0060006
-0.00020048
-1.29841e-08
0.00617992
-0.000179303
-1.74536e-08
0.0063581
-0.000178156
-2.57988e-08
-0.000158702
-2.59811e-08
-0.00223523
1.58057e-05
-0.00223927
1.49738e-05
-0.00224126
1.09062e-05
-0.00224079
6.12726e-06
-0.002237
4.18224e-08
-0.00223064
-5.95756e-06
-0.0022204
-1.34447e-05
-0.00220567
-2.23306e-05
-0.00218573
-3.27822e-05
-0.00215972
-4.50052e-05
-0.00212669
-5.92183e-05
-0.00208554
-7.56512e-05
-0.00203509
-9.45301e-05
-0.00197418
-0.000115857
-0.00190145
-0.000139978
-0.00181549
-0.00016699
-0.00171489
-0.000196944
-0.00159825
-0.000229817
-0.00146423
-0.000265486
-0.0013116
-0.000303721
-0.00113932
-0.000344148
-0.00094674
-0.000386059
-0.000732763
-0.000429914
-0.000498161
-0.000472619
-0.000243051
-0.000515071
3.17164e-05
-0.000555839
0.000323894
-0.000593396
0.000632722
-0.00062765
0.000955723
-0.000657407
0.00129007
-0.000681609
0.00163282
-0.000699838
0.00198066
-0.000711279
0.00233046
-0.00071631
0.00267871
-0.000714135
0.00302268
-0.000706343
0.00335902
-0.000691585
0.00368603
-0.000673274
0.00400057
-0.000648384
0.0043025
-0.000623177
0.00458863
-0.000591186
0.00486092
-0.000563233
0.00511542
-0.000526916
0.00535678
-0.000500245
0.00557931
-0.000461498
0.00579119
-0.000439858
0.00598369
-0.000399679
0.0061696
-0.000386384
0.00633611
-0.000345817
0.00650123
-0.000343271
-0.000306339
-0.00146362
6.84973e-06
-0.00145526
6.60788e-06
-0.00144466
3.05949e-07
-0.00143208
-6.45132e-06
-0.00141732
-1.47149e-05
-0.00139885
-2.44273e-05
-0.00137648
-3.58191e-05
-0.00134966
-4.91463e-05
-0.00131776
-6.46858e-05
-0.00128002
-8.27466e-05
-0.00123558
-0.000103656
-0.00118349
-0.000127743
-0.00112262
-0.0001554
-0.00105203
-0.000186448
-0.000970513
-0.000221491
-0.000876848
-0.000260654
-0.00076979
-0.000304002
-0.00064812
-0.000351487
-0.000510678
-0.000402928
-0.000356415
-0.000457983
-0.000184372
-0.000516191
6.37518e-06
-0.000576806
0.00021356
-0.000637098
0.000439612
-0.000698671
0.000683603
-0.000759062
0.000944477
-0.000816713
0.00122113
-0.00087005
0.00151141
-0.000917933
0.00181312
-0.000959109
0.00212363
-0.00099212
0.00244021
-0.00101642
0.00275978
-0.00103085
0.0030795
-0.00103602
0.00339617
-0.00103081
0.00370741
-0.00101758
0.00401024
-0.000994422
0.00430323
-0.000966267
0.00458373
-0.000928885
0.00485169
-0.000891137
0.00510453
-0.000844017
0.00534396
-0.000802668
0.00556693
-0.000749883
0.00577736
-0.000710674
0.00597086
-0.000655001
0.0061542
-0.000623202
0.00632064
-0.000566115
0.00648058
-0.000546325
0.00662421
-0.000489451
0.00676596
-0.000485021
-0.000434026
-0.000409299
-1.58331e-05
-0.000386775
-1.59168e-05
-0.000363894
-2.25742e-05
-0.000338277
-3.20689e-05
-0.000309725
-4.32671e-05
-0.000277861
-5.6291e-05
-0.000242168
-7.15123e-05
-0.000202097
-8.92173e-05
-0.000157076
-0.000109707
-0.00010647
-0.000133353
-4.955e-05
-0.000160575
1.44384e-05
-0.000191731
8.58717e-05
-0.000226833
0.000166135
-0.000266712
0.000256126
-0.000311481
0.000356807
-0.000361336
0.000469161
-0.000416355
0.000594136
-0.000476463
0.000732613
-0.000541405
0.000885338
-0.000610708
0.00105287
-0.000683721
0.00123544
-0.000759378
0.00143399
-0.000835648
0.00164753
-0.000912216
0.00187554
-0.000987072
0.00211706
-0.00105822
0.00237084
-0.00112384
0.00263502
-0.00118211
0.00290752
-0.00123161
0.00318593
-0.00127053
0.00346779
-0.00129829
0.00375034
-0.0013134
0.0040311
-0.00131678
0.00430732
-0.00130703
0.00457696
-0.00128721
0.00483756
-0.00125503
0.00508796
-0.00121667
0.00532608
-0.001167
0.00555193
-0.00111699
0.00576361
-0.0010557
0.00596257
-0.00100163
0.00614671
-0.000934025
0.0063191
-0.000883055
0.00647685
-0.000812758
0.00662503
-0.000771382
0.00675925
-0.000700337
0.00688705
-0.000674122
0.0070022
-0.000604601
0.00711485
-0.00059767
-0.000536614
0.000864895
-4.18378e-05
0.00089485
-4.58716e-05
0.000927137
-5.4862e-05
0.000962134
-6.70656e-05
0.00100025
-8.13795e-05
0.00104186
-9.79044e-05
0.0010874
-0.000117051
0.0011373
-0.000139119
0.00119199
-0.000164401
0.00125193
-0.000193293
0.00131763
-0.000226268
0.00138965
-0.000263751
0.0014688
-0.000305984
0.00155561
-0.000353521
0.00165076
-0.000406633
0.00175496
-0.000465534
0.00186891
-0.000530305
0.00199328
-0.00060084
0.0021287
-0.00067682
0.00227564
-0.000757652
0.00243443
-0.000842507
0.0026052
-0.000930144
0.0027883
-0.00101875
0.00298305
-0.00110697
0.0031888
-0.00119281
0.00340454
-0.00127397
0.00362904
-0.00134834
0.00386065
-0.00141372
0.00409753
-0.00146848
0.00433757
-0.00151057
0.00457867
-0.00153939
0.0048185
-0.00155323
0.005055
-0.00155328
0.00528593
-0.00153795
0.00550963
-0.00151092
0.0057242
-0.0014696
0.00592872
-0.00142119
0.00612167
-0.00135994
0.00630308
-0.0012984
0.0064717
-0.00122432
0.00662861
-0.00115855
0.00677264
-0.00107805
0.00690588
-0.0010163
0.00702693
-0.000933812
0.0071391
-0.000883545
0.00724028
-0.000801514
0.00733512
-0.000768964
0.00742088
-0.000690367
0.00750356
-0.000680346
-0.000613004
0.00232209
-6.08516e-05
0.00234881
-7.25894e-05
0.00238037
-8.64195e-05
0.0024158
-0.000102495
0.00245513
-0.000120709
0.00249861
-0.000141386
0.0025465
-0.000164941
0.00259903
-0.000191647
0.00265642
-0.000221793
0.00271894
-0.000255814
0.00278691
-0.000294236
0.00286069
-0.000337533
0.00294077
-0.00038606
0.00302748
-0.000440236
0.00312124
-0.000500391
0.00322245
-0.000566751
0.00333154
-0.000639388
0.00344886
-0.000718166
0.00357475
-0.000802711
0.00370944
-0.00089234
0.00385303
-0.000986091
0.00400547
-0.00108259
0.00416675
-0.00118003
0.0043363
-0.00127652
0.00451342
-0.00136993
0.00469715
-0.0014577
0.00488637
-0.00153757
0.00507968
-0.00160702
0.00527555
-0.00166436
0.00547231
-0.00170732
0.00566827
-0.00173536
0.00586165
-0.00174661
0.00605085
-0.00174248
0.0062342
-0.00172131
0.00641047
-0.00168718
0.00657828
-0.00163741
0.00673696
-0.00157986
0.00688547
-0.00150846
0.00702383
-0.00143676
0.00715132
-0.00135181
0.00726859
-0.00127581
0.00737522
-0.00118467
0.00747236
-0.00111345
0.0075598
-0.00102125
0.00763926
-0.000963001
0.00771049
-0.000872741
0.00777563
-0.000834109
0.00783478
-0.000749513
0.00789046
-0.000736027
-0.000665435
0.00392497
-6.79853e-05
0.00393959
-8.72123e-05
0.0039603
-0.000107134
0.00398586
-0.000128052
0.00401603
-0.000150881
0.00405109
-0.000176443
0.00409124
-0.000205089
0.0041365
-0.000236911
0.00418687
-0.00027216
0.00424241
-0.000311359
0.00430329
-0.000355108
0.00436965
-0.000403898
0.00444169
-0.000458096
0.00451952
-0.000518068
0.00460327
-0.000584148
0.00469308
-0.000656557
0.00478904
-0.000735347
0.00489122
-0.000820349
0.00499966
-0.000911152
0.00511436
-0.00100703
0.00523521
-0.00110694
0.00536202
-0.0012094
0.00549454
-0.00131255
0.00563223
-0.00141422
0.00577444
-0.00151213
0.00592029
-0.00160356
0.00606887
-0.00168614
0.00621904
-0.00175719
0.00636971
-0.00181503
0.00651965
-0.00185726
0.00666771
-0.00188341
0.00681264
-0.00189155
0.00695339
-0.00188323
0.00708885
-0.00185677
0.00721821
-0.00181654
0.00734059
-0.00175979
0.00745553
-0.00169481
0.00756242
-0.00161534
0.00766118
-0.00153553
0.0077515
-0.00144212
0.00783359
-0.00135791
0.00790758
-0.00125866
0.00797378
-0.00117964
0.00803275
-0.00108023
0.00808494
-0.00101519
0.00813137
-0.000919174
0.00817228
-0.000875015
0.00820964
-0.000786877
0.00824351
-0.000769895
-0.000698211
0.00561093
-5.86585e-05
0.00560798
-8.42646e-05
0.00561082
-0.000109975
0.00561851
-0.000135741
0.00563097
-0.000163337
0.00564862
-0.0001941
0.00567173
-0.000228195
0.00570019
-0.000265374
0.00573385
-0.000305814
0.00577265
-0.00035016
0.00581663
-0.000399092
0.0058658
-0.00045307
0.00592012
-0.000512414
0.00597951
-0.000577455
0.00604388
-0.000648514
0.00611311
-0.00072579
0.00618706
-0.000809298
0.00626554
-0.000898833
0.00634834
-0.000993948
0.00643518
-0.00109387
0.00652577
-0.00119753
0.00661977
-0.0013034
0.00671689
-0.00140966
0.00681667
-0.001514
0.00691854
-0.001614
0.00702182
-0.00170684
0.00712581
-0.00179013
0.00722974
-0.00186113
0.00733292
-0.00191821
0.00743463
-0.00195897
0.00753422
-0.001983
0.00763102
-0.00198835
0.00772445
-0.00197666
0.00781394
-0.00194626
0.00789904
-0.00190164
0.00797928
-0.00184004
0.00805438
-0.00176991
0.008124
-0.00168496
0.008188
-0.00159953
0.00824628
-0.0015004
0.00829869
-0.00141032
0.00834564
-0.00130561
0.00838677
-0.00122077
0.00842308
-0.00111654
0.00845408
-0.00104618
0.00848147
-0.000946569
0.00850422
-0.000897759
0.0085253
-0.000807955
0.00854321
-0.000787811
-0.000716428
0.00727824
-2.94182e-05
0.00725449
-6.05225e-05
0.0072357
-9.11856e-05
0.00722111
-0.000121151
0.00721104
-0.000153257
0.00720609
-0.000189156
0.00720646
-0.00022856
0.0072119
-0.000270817
0.00722219
-0.000316108
0.00723729
-0.000365254
0.00725717
-0.000418975
0.00728174
-0.000477635
0.0073108
-0.000541477
0.00734415
-0.000610806
0.00738156
-0.000685924
0.00742275
-0.000766985
0.00746742
-0.000853961
0.00751519
-0.000946608
0.0075657
-0.00104446
0.00761854
-0.00114671
0.00767329
-0.00125228
0.00772953
-0.00135964
0.00778688
-0.00146701
0.00784497
-0.00157209
0.00790352
-0.00167256
0.00796213
-0.00176544
0.00802037
-0.00184837
0.00807784
-0.0019186
0.00813425
-0.00197462
0.00818934
-0.00201407
0.00824293
-0.00203658
0.00829483
-0.00204025
0.00834486
-0.00202669
0.00839287
-0.00199428
0.00843869
-0.00194745
0.00848214
-0.00188348
0.00852302
-0.00181079
0.00856116
-0.00172311
0.00859633
-0.00163469
0.00862851
-0.00153258
0.00865724
-0.00143905
0.00868303
-0.0013314
0.00870506
-0.0012428
0.00872446
-0.00113594
0.00874012
-0.00106185
0.00875399
-0.000960443
0.00876431
-0.000908075
0.00877434
-0.00081799
0.00878182
-0.000795291
-0.000725051
0.00878447
2.01367e-05
0.00874175
-1.77995e-05
0.00870232
-5.17563e-05
0.00866584
-8.46694e-05
0.0086333
-0.000120722
0.00860554
-0.000161394
0.0085825
-0.000205514
0.00856376
-0.000252083
0.00854912
-0.000301467
0.00853857
-0.000354703
0.00853207
-0.000412473
0.00852943
-0.000474995
0.00853039
-0.000542444
0.00853471
-0.00061512
0.00854208
-0.000693292
0.00855215
-0.000777059
0.00856454
-0.000866347
0.00857881
-0.000960884
0.00859454
-0.00106019
0.00861128
-0.00116346
0.00862862
-0.00126961
0.00864614
-0.00137717
0.00866353
-0.00148439
0.00868051
-0.00158907
0.00869695
-0.00168899
0.00871285
-0.00178134
0.00872816
-0.00186369
0.00874284
-0.00193327
0.00875693
-0.00198871
0.00877057
-0.00202771
0.00878393
-0.00204994
0.00879719
-0.00205351
0.00881047
-0.00203997
0.00882389
-0.0020077
0.00883744
-0.001961
0.00885112
-0.00189716
0.00886474
-0.00182442
0.0088782
-0.00173657
0.00889115
-0.00164764
0.00890356
-0.00154499
0.00891476
-0.00145025
0.00892521
-0.00134185
0.00893381
-0.0012514
0.0089416
-0.00114373
0.0089472
-0.00106744
0.00895244
-0.000965685
0.00895528
-0.00091092
0.00895883
-0.000821535
0.00896057
-0.000797028
-0.000728405
0.00997968
8.45989e-05
0.00992235
3.95291e-05
0.00987027
3.24483e-07
0.00981857
-3.29722e-05
0.00976986
-7.20118e-05
0.00972481
-0.00011634
0.00968326
-0.000163971
0.00964484
-0.000213662
0.00960944
-0.00026606
0.0095771
-0.000322366
0.00954775
-0.00038312
0.00952114
-0.000448385
0.00949701
-0.000518321
0.00947513
-0.000593232
0.00945518
-0.000673341
0.0094368
-0.000758688
0.00941963
-0.00084917
0.00940324
-0.000944498
0.00938725
-0.00104419
0.00937125
-0.00114746
0.00935491
-0.00125327
0.00933794
-0.00136019
0.00932012
-0.00146658
0.00930138
-0.00157033
0.00928174
-0.00166935
0.00926142
-0.00176102
0.00924079
-0.00184306
0.00922014
-0.00191263
0.00919983
-0.0019684
0.00918026
-0.00200814
0.00916186
-0.00203154
0.00914505
-0.00203669
0.00913012
-0.00202504
0.00911735
-0.00199492
0.00910682
-0.00195047
0.00909857
-0.0018889
0.00909243
-0.00181828
0.00908827
-0.0017324
0.00908565
-0.00164502
0.00908448
-0.00154383
0.00908397
-0.00144974
0.00908443
-0.00134231
0.00908467
-0.00125164
0.00908553
-0.00114458
0.00908555
-0.00106747
0.00908627
-0.000966409
0.0090857
-0.000910348
0.00908649
-0.000822321
0.00908623
-0.000796771
-0.000730004
0.0107632
0.000146816
0.0107047
9.79755e-05
0.0106453
5.97116e-05
0.0105883
2.40521e-05
0.0105346
-1.8326e-05
0.0104823
-6.39798e-05
0.0104315
-0.000113257
0.0103823
-0.000164459
0.0103348
-0.000218522
0.0102891
-0.000276622
0.010245
-0.000339038
0.0102023
-0.000405725
0.0101609
-0.000476884
0.0101205
-0.000552813
0.0100808
-0.000633667
0.0100415
-0.000719446
0.0100024
-0.000810033
0.00996305
-0.000905141
0.00992316
-0.0010043
0.00988245
-0.00110675
0.00984069
-0.00121152
0.00979774
-0.00131724
0.00975357
-0.0014224
0.00970824
-0.00152501
0.00966201
-0.00162312
0.00961522
-0.00171423
0.0095685
-0.00179634
0.00952246
-0.00186659
0.00947769
-0.00192362
0.00943478
-0.00196524
0.00939432
-0.00199108
0.00935685
-0.00199922
0.00932279
-0.00199098
0.00929246
-0.0019646
0.00926599
-0.00192401
0.00924344
-0.00186635
0.00922464
-0.00179948
0.00920939
-0.00171715
0.00919724
-0.00163287
0.009188
-0.00153458
0.00918085
-0.00144259
0.00917594
-0.0013374
0.00917209
-0.00124779
0.00916987
-0.00114237
0.00916796
-0.00106555
0.00916748
-0.000965929
0.00916667
-0.000909538
0.00916762
-0.000823275
0.00916824
-0.000797385
-0.000732568
0.0111304
0.000198113
0.0110803
0.000148073
0.0110293
0.000110689
0.0109753
7.81234e-05
0.0109223
3.46228e-05
0.0108736
-1.52451e-05
0.0108234
-6.31154e-05
0.010773
-0.000114069
0.0107229
-0.000168403
0.0106732
-0.000226929
0.0106238
-0.000289618
0.0105745
-0.000356409
0.0105252
-0.000427562
0.0104757
-0.000503324
0.0104258
-0.000583781
0.0103753
-0.000668916
0.0103238
-0.000758616
0.0102713
-0.000852599
0.0102174
-0.000950422
0.010162
-0.00105136
0.0101051
-0.00115453
0.0100464
-0.00125864
0.00998634
-0.0013623
0.00992495
-0.00146362
0.00986269
-0.00156086
0.00980003
-0.00165158
0.00973771
-0.00173402
0.00967653
-0.00180541
0.00961726
-0.00186436
0.00956064
-0.00190862
0.00950734
-0.00193778
0.00945797
-0.00194985
0.009413
-0.00194601
0.0093728
-0.0019244
0.00933753
-0.00188874
0.00930725
-0.00183607
0.00928178
-0.00177401
0.00926093
-0.0016963
0.00924424
-0.00161618
0.00923143
-0.00152178
0.00922175
-0.00143291
0.00921516
-0.00133082
0.0092106
-0.00124323
0.00920838
-0.00114015
0.00920734
-0.00106451
0.00920822
-0.000966803
0.00920958
-0.000910895
0.00921291
-0.000826614
0.00921652
-0.000800995
-0.000738131
0.011176
0.000235391
0.0111383
0.000185724
0.0110987
0.000150334
0.0110554
0.000121421
0.0110107
7.92861e-05
0.0109665
2.90137e-05
0.0109239
-2.05314e-05
0.010879
-6.92061e-05
0.0108332
-0.000122571
0.0107866
-0.000180318
0.010739
-0.000242089
0.0106905
-0.00030791
0.010641
-0.000378064
0.0105904
-0.000452695
0.0105385
-0.000531841
0.010485
-0.000615484
0.0104299
-0.000703516
0.010373
-0.000795666
0.0103141
-0.000891528
0.0102532
-0.000990431
0.0101902
-0.00109156
0.0101253
-0.00119371
0.0100586
-0.00129564
0.00999056
-0.00139555
0.00992157
-0.00149187
0.00985226
-0.00158227
0.00978337
-0.00166512
0.00971579
-0.00173783
0.00965041
-0.00179898
0.00958804
-0.00184625
0.00952942
-0.00187916
0.0094752
-0.00189563
0.00942589
-0.0018967
0.0093819
-0.0018804
0.00934341
-0.00185025
0.00931049
-0.00180315
0.00928303
-0.00174655
0.00926079
-0.00167407
0.0092434
-0.00159878
0.00923049
-0.00150887
0.00922141
-0.00142383
0.00921597
-0.00132538
0.00921326
-0.00124051
0.00921334
-0.00114023
0.00921529
-0.00106646
0.00921943
-0.000970948
0.00922472
-0.000916188
0.00923209
-0.000833978
0.00924024
-0.000809147
-0.000748181
0.0110249
0.000261199
0.0109979
0.000212763
0.0109682
0.000180064
0.0109352
0.000154442
0.0109009
0.000113529
0.0108643
6.56066e-05
0.0108283
1.5518e-05
0.0107916
-3.2531e-05
0.0107528
-8.37933e-05
0.0107124
-0.00013991
0.0106703