/*--------------------------------*- C++ -*----------------------------------*\
  =========                 |
  \\      /  F ield         | OpenFOAM: The Open Source CFD Toolbox
   \\    /   O peration     | Website:  https://openfoam.org
    \\  /    A nd           | Version:  7
     \\/     M anipulation  |
\*---------------------------------------------------------------------------*/
FoamFile
{
    version     2.0;
    format      ascii;
    class       volVectorField;
    location    "20";
    object      U;
}
// * * * * * * * * * * * * * * * * * * * * * * * * * * * * * * * * * * * * * //

dimensions      [0 1 -1 0 0 0 0];

internalField   nonuniform List<vector> 
6050
(
(-0.167905 0.00390155 3.46827e-20)
(-0.183142 0.00369781 -4.74826e-20)
(-0.196945 0.0035175 2.77185e-20)
(-0.209508 0.00335104 1.44683e-20)
(-0.220957 0.00318703 5.24615e-21)
(-0.23136 0.00301209 -1.69916e-20)
(-0.240731 0.0028118 -9.658e-21)
(-0.249005 0.00256404 -6.34431e-21)
(-0.256029 0.00224029 2.6342e-20)
(-0.261774 0.00188944 -3.09087e-20)
(-0.265769 0.00134075 -6.56264e-21)
(-0.268329 0.00107957 7.61405e-21)
(-0.268038 0.000408457 -2.13701e-20)
(-0.163909 0.0115986 -1.51191e-19)
(-0.177938 0.0109747 9.23193e-20)
(-0.190332 0.0104182 -7.20485e-20)
(-0.201256 0.00990058 8.64119e-21)
(-0.210809 0.00938812 -4.16904e-20)
(-0.219025 0.00884165 1.51314e-20)
(-0.225896 0.00821976 3.03009e-20)
(-0.231342 0.00746155 5.05752e-20)
(-0.235141 0.00646169 3.03979e-20)
(-0.237429 0.00543362 8.4549e-20)
(-0.237274 0.00365781 8.02395e-21)
(-0.235885 0.00298719 -6.88775e-20)
(-0.22951 0.000577687 5.11309e-20)
(-0.155986 0.0189862 1.27634e-20)
(-0.167629 0.0179054 -3.56966e-20)
(-0.177252 0.0169281 7.08597e-20)
(-0.184969 0.0160071 -2.21408e-20)
(-0.190824 0.0150877 2.51683e-20)
(-0.1948 0.0141075 -2.54602e-20)
(-0.196846 0.0130029 -4.85527e-20)
(-0.196886 0.011696 -5.58299e-20)
(-0.194478 0.00992971 -6.80972e-20)
(-0.190363 0.00833773 -1.37537e-19)
(-0.182134 0.00495245 5.1089e-20)
(-0.174028 0.00425684 4.28772e-20)
(-0.156018 -0.000751934 1.3368e-19)
(-0.144253 0.0258691 -1.10187e-20)
(-0.152389 0.0242764 -3.45851e-21)
(-0.157957 0.022812 -2.05201e-19)
(-0.161007 0.0214109 -9.7166e-20)
(-0.161523 0.0199991 4.54055e-20)
(-0.159422 0.0184962 5.62646e-21)
(-0.154593 0.0168192 4.45337e-20)
(-0.147057 0.0149248 -1.32944e-19)
(-0.135774 0.0122399 5.18847e-20)
(-0.123193 0.0103124 7.56433e-20)
(-0.103055 0.00493664 8.74346e-20)
(-0.0870696 0.00450543 -4.67056e-20)
(-0.0523253 -0.00326586 -1.08106e-19)
(-0.128853 0.0320671 -8.44074e-21)
(-0.132413 0.0298971 -3.08504e-21)
(-0.132722 0.0278685 4.18712e-20)
(-0.129763 0.0259008 6.1263e-20)
(-0.123453 0.0239023 -1.6561e-19)
(-0.113651 0.0217818 2.00554e-19)
(-0.100139 0.0194357 1.0249e-19)
(-0.0833154 0.016916 1.57906e-19)
(-0.0606722 0.0132109 -3.9892e-21)
(-0.0384933 0.0109208 -3.73784e-20)
(-0.00268222 0.00430844 3.83308e-21)
(0.0211835 0.00257724 -5.62582e-20)
(0.0773621 -0.00578284 -1.0061e-19)
(-0.107855 0.0346066 1.55707e-20)
(-0.101748 0.0319402 4.31597e-20)
(-0.091497 0.0293279 3.42164e-19)
(-0.0769577 0.0266624 -2.17932e-21)
(-0.0579555 0.0238512 1.20001e-19)
(-0.0340637 0.0207855 -2.92381e-19)
(-0.00652459 0.0174877 3.78315e-20)
(0.0298221 0.0130699 -5.92272e-20)
(0.0622311 0.00986985 -4.71444e-20)
(0.117645 0.00315792 4.45086e-20)
(0.147015 -0.00109663 -9.83937e-20)
(0.23169 -0.00805797 9.92387e-20)
(-0.0787403 0.0382791 -2.2595e-19)
(-0.065035 0.0349214 2.65215e-20)
(-0.0461776 0.031618 -7.00983e-20)
(-0.0219613 0.0282502 1.10236e-19)
(0.00777932 0.0247173 -2.9746e-21)
(0.043769 0.0210051 -1.01469e-19)
(0.0834318 0.0167504 2.65246e-19)
(0.136057 0.0122478 -1.02474e-19)
(0.178037 0.00732582 -8.65593e-20)
(0.25825 0.00169532 1.34212e-19)
(0.289053 -0.00500083 5.01257e-20)
(0.407366 -0.010299 2.17247e-19)
(-0.0448808 0.0408324 6.86593e-19)
(-0.0222659 0.0367705 8.80016e-21)
(0.00667526 0.032788 -4.395e-19)
(0.0422061 0.0287643 -4.60091e-20)
(0.0844193 0.0245533 -4.25764e-19)
(0.134407 0.0204735 2.00894e-19)
(0.187635 0.0151074 -1.4863e-19)
(0.258714 0.0114595 1.5472e-19)
(0.310398 0.00406129 2.15367e-19)
(0.416789 0.00103144 8.37588e-20)
(0.448187 -0.00804269 -2.33569e-19)
(0.597676 -0.0114818 -2.02026e-19)
(-0.00577346 0.0422426 -5.63623e-19)
(0.0273101 0.0375324 -1.6169e-19)
(0.0680987 0.0329753 1.01034e-19)
(0.116875 0.0284668 1.85967e-19)
(0.173548 0.023755 -5.58841e-20)
(0.239325 0.0197904 2.17071e-19)
(0.308076 0.013386 1.25039e-20)
(0.397159 0.0114268 -2.33302e-19)
(0.461446 0.00197815 1.63574e-20)
(0.587256 0.00175666 -3.26003e-19)
(0.623308 -0.00856306 6.00275e-20)
(0.79098 -0.00981728 -1.28732e-19)
(0.0394884 0.04257 2.61535e-19)
(0.0849524 0.0373752 -2.15643e-19)
(0.139693 0.0324849 3.35523e-19)
(0.203883 0.0278395 3.28734e-19)
(0.277072 0.0230374 4.22504e-19)
(0.35968 0.0196615 -4.02317e-19)
(0.44584 0.0131232 3.72229e-20)
(0.548787 0.0126033 3.43309e-19)
(0.629293 0.00318697 -1.21736e-19)
(0.760349 0.00476566 1.89748e-21)
(0.806501 -0.00545094 -1.36495e-20)
(0.970727 -0.00438286 1.62489e-19)
(0.0922725 0.0420002 -2.87075e-19)
(0.152408 0.0366432 -4.57649e-20)
(0.223435 0.0318522 -1.45606e-19)
(0.305097 0.0276121 -9.66143e-20)
(0.396206 0.0234442 -2.27746e-19)
(0.495309 0.0209662 -1.13731e-19)
(0.598276 0.0157961 4.32918e-20)
(0.708776 0.0159402 -2.21455e-19)
(0.803816 0.00856363 2.41043e-20)
(0.924835 0.0107586 1.40477e-20)
(0.981144 0.00147883 -1.64611e-19)
(1.11921 0.00400395 1.09118e-19)
(0.231705 0.0359116 -1.50062e-19)
(0.321159 0.0318789 4.68855e-19)
(0.421502 0.028754 -5.27927e-19)
(0.530037 0.0261036 -4.74251e-19)
(0.643198 0.0248604 6.56981e-19)
(0.757485 0.0220141 -1.42125e-19)
(0.868688 0.0224966 6.90347e-20)
(0.96815 0.0175799 9.93564e-20)
(1.06863 0.0193988 -8.8439e-20)
(1.12674 0.0110608 2.41004e-19)
(1.22416 0.0132534 3.02501e-19)
(0.324639 0.0360098 2.37497e-19)
(0.433644 0.0335844 -2.67311e-19)
(0.551862 0.0323535 -1.13728e-19)
(0.674271 0.0318919 3.70952e-19)
(0.79584 0.0322083 -4.81438e-19)
(0.911685 0.0315307 -2.67622e-20)
(1.01571 0.0321745 1.96608e-19)
(1.10558 0.0286759 -7.84088e-20)
(1.18086 0.0292856 -1.0245e-19)
(1.22904 0.0210606 1.29185e-20)
(1.28504 0.0214455 -1.37059e-19)
(0.431914 0.0379604 -4.9651e-19)
(0.559422 0.0380129 2.92984e-19)
(0.6915 0.0392564 1.67796e-19)
(0.820784 0.0411282 -2.16904e-19)
(0.941633 0.0428041 3.41128e-19)
(1.04806 0.0433493 2.63757e-19)
(1.13641 0.0434252 -6.78065e-20)
(1.20621 0.0398846 2.3466e-21)
(1.25612 0.0385865 -1.04719e-20)
(1.28763 0.0295328 -3.33843e-19)
(1.31231 0.027809 -4.67444e-19)
(0.552072 0.042777 2.01406e-19)
(0.693786 0.0458791 -1.68102e-19)
(0.832125 0.0496152 1.1884e-19)
(0.958643 0.0532443 1.01766e-19)
(1.06829 0.0553286 -7.73263e-20)
(1.15636 0.0557929 1.84705e-19)
(1.22311 0.0541992 -2.03842e-19)
(1.26962 0.0496467 2.43247e-19)
(1.29787 0.0460081 4.76484e-19)
(1.31388 0.035907 2.36692e-19)
(1.32004 0.032626 3.75968e-19)
(0.828785 0.0571696 2.23061e-20)
(0.96337 0.0626489 6.58664e-20)
(1.07709 0.0667741 -1.12295e-19)
(1.16724 0.0679629 -2.83931e-19)
(1.23249 0.0671197 -5.20652e-21)
(1.27694 0.0631204 3.43832e-19)
(1.30313 0.0573606 -2.89028e-19)
(1.31614 0.0513548 -6.6171e-19)
(1.32169 0.0407598 -4.94162e-19)
(1.31876 0.0364989 1.86975e-19)
(0.954814 0.0709749 -4.87658e-19)
(1.07576 0.0768246 3.70179e-19)
(1.16926 0.0799399 4.81424e-20)
(1.2363 0.0791881 1.26335e-19)
(1.27948 0.0763275 -2.76924e-19)
(1.30534 0.0699406 -7.98806e-20)
(1.31706 0.063297 -7.50314e-20)
(1.32118 0.0551687 7.93552e-20)
(1.32065 0.0449233 2.89241e-19)
(1.31386 0.0397646 -6.19514e-19)
(1.16369 0.0904638 -1.74137e-19)
(1.23409 0.0914245 4.78582e-20)
(1.27927 0.0883207 -2.71887e-19)
(1.30461 0.0833685 -2.29176e-20)
(1.31727 0.0751735 5.54626e-20)
(1.32009 0.0680175 -4.05434e-20)
(1.31962 0.0580956 5.57468e-19)
(1.31548 0.0489895 1.06655e-20)
(1.30773 0.0424434 5.82038e-19)
(1.22665 0.102399 -6.5891e-20)
(1.27536 0.10075 -2.31599e-19)
(1.30284 0.095463 -4.17377e-19)
(1.31552 0.0887513 -1.16309e-20)
(1.31976 0.0794737 -1.90832e-19)
(1.31762 0.0719217 1.64781e-19)
(1.31483 0.0606927 -8.36939e-20)
(1.30834 0.0532949 -6.45662e-19)
(1.30144 0.0443376 -2.54604e-19)
(1.29893 0.10811 3.46016e-19)
(1.31357 0.101085 5.2712e-19)
(1.31801 0.0930748 -8.86647e-20)
(1.31724 0.0832773 1.27924e-19)
(1.31255 0.0752403 -4.72174e-20)
(1.30846 0.0635043 2.91247e-19)
(1.3004 0.0577297 1.43884e-19)
(1.29539 0.0450588 1.65984e-19)
(1.31044 0.113973 3.43693e-20)
(1.31642 0.105684 1.45572e-19)
(1.31583 0.0968026 -2.74434e-20)
(1.31221 0.0867786 2.58455e-19)
(1.30632 0.0782364 2.78897e-20)
(1.30137 0.0668622 -6.75489e-19)
(1.29267 0.0613952 3.03529e-19)
(1.28929 0.0442344 -2.81756e-19)
(1.31471 0.109662 -5.64059e-20)
(1.31119 0.100222 -6.08178e-20)
(1.30602 0.0900781 -4.44031e-20)
(1.29958 0.0812232 2.61791e-19)
(1.29399 0.070418 1.9913e-19)
(1.28563 0.0632824 6.33722e-20)
(1.28187 0.0516727 1.76492e-19)
(1.31048 0.113284 -5.94234e-20)
(1.3053 0.103473 -2.3274e-20)
(1.29929 0.0932796 2.12954e-19)
(1.2926 0.0842905 -1.12202e-19)
(1.2867 0.0733788 -1.30901e-19)
(1.27847 0.0672515 -3.00269e-19)
(1.27452 0.0542065 -2.02728e-19)
(1.2988 0.106645 1.19895e-20)
(1.29234 0.0964609 -2.75027e-19)
(1.28557 0.0871744 6.76895e-20)
(1.27938 0.0768482 -1.33794e-19)
(1.27144 0.0697263 -5.08451e-19)
(1.2676 0.0579287 2.66716e-19)
(1.2853 0.0995553 1.48582e-19)
(1.27848 0.0901832 -3.60297e-20)
(1.27215 0.0798123 4.45177e-19)
(1.26455 0.0727844 4.28751e-19)
(1.26042 0.0610884 1.78763e-19)
(1.27138 0.0930287 -8.55369e-21)
(1.26495 0.0829343 -3.03736e-19)
(1.25764 0.075391 -1.16688e-19)
(1.25341 0.0639822 -1.70769e-19)
(1.25778 0.0858114 -2.11317e-20)
(1.25078 0.0779973 2.7937e-19)
(1.2463 0.0668362 3.05463e-19)
(1.24388 0.0804607 -1.64917e-19)
(1.23921 0.0694351 -6.32327e-20)
(1.24388 -0.080461 -5.83885e-20)
(1.23921 -0.0694353 -4.27393e-19)
(1.25778 -0.0858117 1.37421e-19)
(1.25078 -0.0779976 3.03182e-19)
(1.2463 -0.0668365 1.63573e-19)
(1.27138 -0.093029 1.76231e-19)
(1.26495 -0.0829347 -1.47203e-19)
(1.25764 -0.0753913 -2.45444e-19)
(1.25341 -0.0639825 4.04697e-20)
(1.2853 -0.0995556 -3.80728e-19)
(1.27848 -0.0901835 -5.63881e-21)
(1.27215 -0.0798126 5.00246e-19)
(1.26455 -0.0727848 2.05188e-19)
(1.26042 -0.0610888 1.74857e-19)
(1.29879 -0.106645 -9.40302e-20)
(1.29234 -0.0964613 5.8343e-20)
(1.28557 -0.0871748 -5.3966e-20)
(1.27938 -0.0768486 5.62402e-20)
(1.27144 -0.0697267 -3.14417e-19)
(1.2676 -0.0579291 1.80035e-19)
(1.31048 -0.113284 7.47748e-21)
(1.3053 -0.103473 1.73358e-19)
(1.29929 -0.09328 8.19439e-20)
(1.2926 -0.0842909 -2.03536e-19)
(1.2867 -0.0733793 -4.06734e-20)
(1.27847 -0.067252 -2.01455e-20)
(1.27452 -0.054207 -3.17294e-19)
(1.31471 -0.109662 -2.24501e-20)
(1.31119 -0.100223 1.17405e-20)
(1.30602 -0.0900785 -1.1185e-19)
(1.29958 -0.0812237 1.03402e-19)
(1.29399 -0.0704185 7.8772e-20)
(1.28563 -0.0632829 -7.14208e-21)
(1.28187 -0.0516732 2.47523e-19)
(1.31044 -0.113974 -2.06329e-19)
(1.31642 -0.105685 -3.22667e-19)
(1.31583 -0.0968031 2.58192e-19)
(1.31221 -0.0867791 1.69216e-19)
(1.30632 -0.0782369 -7.60704e-20)
(1.30137 -0.0668628 -6.29258e-19)
(1.29267 -0.0613958 6.27431e-20)
(1.28929 -0.0442351 3.60615e-20)
(1.29893 -0.10811 4.04421e-19)
(1.31357 -0.101085 4.27722e-19)
(1.31801 -0.0930752 -1.4093e-19)
(1.31724 -0.0832778 3.59626e-20)
(1.31255 -0.0752409 1.07691e-19)
(1.30846 -0.063505 1.00259e-19)
(1.3004 -0.0577304 3.05195e-19)
(1.29539 -0.0450595 1.17074e-19)
(1.22665 -0.102399 -1.12864e-19)
(1.27536 -0.10075 -1.85407e-19)
(1.30284 -0.0954633 -2.87622e-19)
(1.31552 -0.0887518 6.80136e-20)
(1.31976 -0.0794743 -2.64372e-19)
(1.31762 -0.0719224 -9.31093e-21)
(1.31483 -0.0606934 -2.16968e-19)
(1.30834 -0.0532957 -2.99626e-19)
(1.30144 -0.0443383 -1.88338e-19)
(1.16369 -0.0904637 7.77757e-20)
(1.23409 -0.0914246 -1.0671e-19)
(1.27927 -0.088321 -2.35247e-19)
(1.30461 -0.0833691 -1.51316e-19)
(1.31727 -0.0751742 2.26713e-19)
(1.32009 -0.0680184 -1.47624e-19)
(1.31962 -0.0580965 6.63269e-19)
(1.31548 -0.0489904 3.41187e-19)
(1.30773 -0.0424443 5.82809e-20)
(0.954813 -0.0709746 7.08842e-20)
(1.07575 -0.0768245 -2.87157e-20)
(1.16926 -0.07994 -1.07655e-19)
(1.2363 -0.0791885 5.37903e-19)
(1.27948 -0.076328 -3.48062e-19)
(1.30534 -0.0699414 -3.2428e-19)
(1.31706 -0.0632979 6.82736e-20)
(1.32118 -0.0551697 6.33638e-20)
(1.32065 -0.0449244 7.65229e-19)
(1.31386 -0.0397656 -7.32135e-19)
(0.828784 -0.0571692 2.53098e-19)
(0.963368 -0.0626487 2.41338e-20)
(1.07709 -0.0667741 -6.59863e-20)
(1.16723 -0.0679632 -2.06114e-19)
(1.23249 -0.0671202 8.33262e-20)
(1.27693 -0.0631212 1.62559e-19)
(1.30313 -0.0573616 -2.48897e-19)
(1.31614 -0.051356 -5.88021e-19)
(1.32169 -0.0407611 -3.30234e-19)
(1.31876 -0.0365 1.68114e-19)
(0.552071 -0.0427764 9.24377e-19)
(0.693785 -0.0458786 -4.04529e-19)
(0.832124 -0.0496149 2.03762e-20)
(0.958642 -0.0532442 2.93327e-19)
(1.06829 -0.0553288 2.35235e-19)
(1.15636 -0.0557934 -1.44792e-19)
(1.22311 -0.0542 7.07891e-20)
(1.26962 -0.0496479 2.1118e-19)
(1.29787 -0.0460094 1.5473e-19)
(1.31388 -0.0359084 2.97941e-19)
(1.32004 -0.0326273 6.74329e-19)
(0.431913 -0.0379596 -5.70438e-19)
(0.559421 -0.0380123 3.56654e-19)
(0.691498 -0.039256 2.3782e-19)
(0.820782 -0.0411281 -4.78494e-19)
(0.941631 -0.0428043 6.69434e-19)
(1.04806 -0.0433498 -4.48383e-20)
(1.13641 -0.0434261 -1.2548e-19)
(1.20621 -0.0398859 -8.43511e-20)
(1.25612 -0.0385879 -3.27468e-20)
(1.28763 -0.0295345 -4.62526e-20)
(1.31231 -0.0278105 -2.49022e-19)
(0.324638 -0.0360089 2.08768e-19)
(0.433643 -0.0335836 -2.55197e-19)
(0.551861 -0.032353 -1.28714e-19)
(0.674269 -0.0318916 3.88069e-19)
(0.795838 -0.0322084 -6.33411e-19)
(0.911682 -0.0315312 -3.42912e-21)
(1.01571 -0.0321754 2.72468e-19)
(1.10557 -0.0286772 -1.71736e-19)
(1.18086 -0.0292872 1.43274e-19)
(1.22904 -0.0210625 -2.94594e-19)
(1.28504 -0.0214473 -2.46434e-19)
(0.231704 -0.0359106 1.01254e-19)
(0.321158 -0.0318781 2.77309e-19)
(0.4215 -0.0287533 -4.27256e-19)
(0.530035 -0.0261032 -4.49314e-19)
(0.643196 -0.0248604 5.91683e-19)
(0.757483 -0.0220145 -1.34586e-19)
(0.868685 -0.0224974 2.15758e-19)
(0.968147 -0.0175813 1.83383e-19)
(1.06863 -0.0194004 -2.72381e-19)
(1.12674 -0.0110628 2.81374e-19)
(1.22416 -0.0132554 2.24932e-19)
(0.0922716 -0.0419991 4.07692e-19)
(0.152407 -0.0366421 1.21796e-19)
(0.223434 -0.0318512 -5.50626e-19)
(0.305096 -0.0276113 1.05658e-19)
(0.396204 -0.0234437 -3.24053e-19)
(0.495307 -0.020966 -2.72551e-20)
(0.598273 -0.0157965 1.40542e-19)
(0.708773 -0.015941 -2.60145e-19)
(0.803813 -0.00856498 -6.84579e-20)
(0.924832 -0.0107603 -6.76689e-20)
(0.981141 -0.00148101 3.69213e-20)
(1.11921 -0.00400615 -4.96054e-20)
(0.0394875 -0.0425688 2.51975e-19)
(0.0849513 -0.037374 -1.33459e-19)
(0.139692 -0.0324839 4.87947e-19)
(0.203881 -0.0278386 -5.76692e-20)
(0.27707 -0.0230368 4.44117e-19)
(0.359678 -0.0196613 -1.09976e-19)
(0.445838 -0.0131235 8.20569e-20)
(0.548784 -0.0126041 -1.08633e-19)
(0.629289 -0.00318836 1.24427e-19)
(0.760346 -0.00476752 8.05129e-20)
(0.806498 0.00544856 5.67356e-20)
(0.970725 0.00438036 -8.28306e-20)
(-0.00577437 -0.0422413 -6.98992e-19)
(0.027309 -0.0375311 -8.35326e-20)
(0.0680974 -0.0329741 1.18116e-19)
(0.116874 -0.0284659 1.78632e-19)
(0.173546 -0.0237543 1.95467e-19)
(0.239323 -0.0197901 3.10127e-20)
(0.308073 -0.0133862 -2.30621e-20)
(0.397156 -0.0114276 -3.62101e-19)
(0.461443 -0.00197964 -5.60047e-20)
(0.587254 -0.00175865 7.97782e-20)
(0.623305 0.00856043 -1.57998e-19)
(0.790978 0.00981448 -2.80281e-19)
(-0.0448817 -0.0408311 4.77627e-19)
(-0.0222669 -0.0367692 -6.53627e-20)
(0.00667412 -0.0327868 -3.39747e-19)
(0.0422048 -0.0287633 -2.61698e-19)
(0.0844178 -0.0245526 -8.81412e-20)
(0.134405 -0.0204733 -9.88066e-20)
(0.187633 -0.0151077 8.05457e-20)
(0.258712 -0.0114604 1.13321e-19)
(0.310395 -0.00406292 1.57329e-19)
(0.416786 -0.00103362 -6.72525e-21)
(0.448184 0.00803977 3.09647e-20)
(0.597674 0.0114786 -2.16005e-19)
(-0.078741 -0.0382777 -2.87119e-19)
(-0.0650358 -0.03492 1.8634e-19)
(-0.0461787 -0.0316168 -6.79886e-20)
(-0.0219625 -0.0282492 1.34494e-19)
(0.00777801 -0.0247167 -2.78841e-20)
(0.0437675 -0.0210049 -3.63254e-20)
(0.0834302 -0.0167508 1.17515e-19)
(0.136055 -0.0122488 -1.07403e-19)
(0.178035 -0.00732762 1.04356e-19)
(0.258248 -0.00169773 1.1387e-20)
(0.289051 0.0049976 8.56781e-20)
(0.407364 0.0102954 4.2126e-19)
(-0.107855 -0.0346052 5.88231e-20)
(-0.101749 -0.0319389 1.12799e-19)
(-0.0914979 -0.0293267 2.64986e-19)
(-0.0769587 -0.0266614 -8.03918e-20)
(-0.0579566 -0.0238506 9.09904e-20)
(-0.0340649 -0.0207854 -1.24496e-19)
(-0.0065259 -0.0174882 -1.25003e-19)
(0.0298206 -0.0130711 1.42484e-19)
(0.0622296 -0.00987181 -2.69567e-20)
(0.117644 -0.00316061 -1.77208e-19)
(0.147014 0.00109312 1.26591e-19)
(0.231688 0.00805396 -9.66717e-20)
(-0.128853 -0.0320657 1.99318e-19)
(-0.132414 -0.0298957 -3.04043e-20)
(-0.132723 -0.0278672 1.07952e-20)
(-0.129764 -0.0258996 -3.65934e-20)
(-0.123453 -0.0239013 -4.14208e-21)
(-0.113652 -0.0217812 1.62738e-19)
(-0.10014 -0.0194356 1.8197e-19)
(-0.0833164 -0.0169165 2.97562e-20)
(-0.0606732 -0.0132122 8.27892e-20)
(-0.0384944 -0.0109229 -1.60217e-19)
(-0.00268331 -0.00431137 2.12411e-19)
(0.0211826 -0.002581 -2.23233e-19)
(0.0773613 0.00577841 -5.94826e-20)
(-0.144254 -0.0258676 2.84789e-20)
(-0.152389 -0.024275 -5.48447e-20)
(-0.157957 -0.0228106 -9.57545e-20)
(-0.161008 -0.0214097 -1.51694e-19)
(-0.161524 -0.0199982 8.32528e-20)
(-0.159423 -0.0184957 -2.0241e-20)
(-0.154593 -0.0168192 1.07682e-19)
(-0.147058 -0.0149255 -1.81781e-19)
(-0.135774 -0.0122413 8.36054e-20)
(-0.123194 -0.0103147 9.39411e-20)
(-0.103055 -0.00493977 -9.44929e-20)
(-0.0870701 -0.0045094 8.36512e-20)
(-0.0523259 0.00326116 -1.36585e-19)
(-0.155986 -0.0189847 -1.1151e-20)
(-0.16763 -0.017904 -6.44375e-20)
(-0.177252 -0.0169268 2.90574e-20)
(-0.184969 -0.0160059 3.22422e-20)
(-0.190824 -0.0150867 5.15989e-20)
(-0.1948 -0.014107 -6.69223e-20)
(-0.196847 -0.0130029 -3.27057e-20)
(-0.196886 -0.0116967 5.20024e-21)
(-0.194479 -0.00993121 -1.52339e-19)
(-0.190363 -0.00834012 -7.72345e-20)
(-0.182135 -0.00495576 -4.30516e-20)
(-0.174028 -0.00426102 1.42418e-19)
(-0.156018 0.000746987 4.83884e-20)
(-0.163909 -0.0115971 -1.30366e-19)
(-0.177938 -0.0109732 9.03117e-20)
(-0.190332 -0.0104168 -7.34876e-20)
(-0.201257 -0.00989938 4.1607e-20)
(-0.210809 -0.00938721 -5.75126e-20)
(-0.219025 -0.00884116 -9.13015e-21)
(-0.225896 -0.00821982 1.71013e-20)
(-0.231343 -0.0074623 6.32312e-20)
(-0.235141 -0.00646327 3.71623e-20)
(-0.237429 -0.0054361 1.02666e-19)
(-0.237274 -0.00366123 -3.2244e-20)
(-0.235886 -0.00299154 -4.41612e-20)
(-0.22951 -0.000582896 -6.13194e-22)
(-0.167905 -0.00390006 3.69083e-20)
(-0.183142 -0.00369634 -4.03321e-20)
(-0.196945 -0.00351612 1.55683e-20)
(-0.209508 -0.00334984 3.20039e-20)
(-0.220958 -0.00318612 -1.47459e-20)
(-0.23136 -0.00301161 3.19315e-21)
(-0.240732 -0.00281188 -2.09593e-20)
(-0.249005 -0.00256482 -4.51998e-21)
(-0.256029 -0.0022419 2.15224e-20)
(-0.261774 -0.00189197 -1.25198e-20)
(-0.265769 -0.00134425 -1.63443e-20)
(-0.268329 -0.00108401 -7.57654e-21)
(-0.268038 -0.000413778 -2.67796e-20)
(-0.269195 0.00114474 -2.03918e-20)
(-0.270727 0.0010439 7.38793e-21)
(-0.272 0.000883299 -1.10345e-20)
(-0.273069 0.000709319 1.92615e-20)
(-0.273887 0.000519806 -9.24679e-21)
(-0.274399 0.000322754 -5.23039e-21)
(-0.274565 8.58002e-05 7.2171e-21)
(-0.27433 -0.000185711 -2.37507e-21)
(-0.273609 -0.00049141 5.55475e-21)
(-0.27231 -0.000833245 1.40243e-21)
(-0.27033 -0.00121368 -1.07452e-20)
(-0.267555 -0.00163496 2.13955e-22)
(-0.263858 -0.00209831 7.0226e-21)
(-0.259104 -0.00260273 4.98658e-21)
(-0.253146 -0.00315014 6.38705e-22)
(-0.245825 -0.00373883 -1.27549e-20)
(-0.236978 -0.00436571 9.01324e-22)
(-0.226439 -0.0050259 5.95685e-21)
(-0.214042 -0.00571257 -2.84454e-21)
(-0.199632 -0.00641666 4.71463e-21)
(-0.183066 -0.00712611 -6.14369e-21)
(-0.164228 -0.00782549 -2.63898e-21)
(-0.143011 -0.00851326 4.33673e-21)
(-0.119384 -0.00914654 -3.44058e-21)
(-0.0933591 -0.00973414 4.10152e-21)
(-0.0649664 -0.0102553 -4.55239e-22)
(-0.034289 -0.0107101 -1.36163e-21)
(-0.00148148 -0.0110318 4.54964e-22)
(0.0332477 -0.011265 1.20016e-22)
(0.0696196 -0.0113894 -4.91205e-23)
(0.107358 -0.0114024 -2.72468e-22)
(0.146137 -0.0113003 2.9659e-22)
(0.185593 -0.0110975 6.60156e-22)
(0.225416 -0.0107913 -1.90587e-22)
(0.265141 -0.0104127 4.2639e-24)
(0.304668 -0.00994943 1.00056e-23)
(0.343256 -0.00945576 4.09268e-23)
(0.3814 -0.00889441 2.06694e-23)
(0.417631 -0.00835353 2.05505e-23)
(0.453742 -0.0077503 -3.85578e-23)
(0.486614 -0.00722447 -2.36854e-23)
(0.520603 -0.00662258 7.07128e-23)
(0.54925 -0.00616199 -4.40193e-23)
(0.581675 -0.00558589 -7.1298e-23)
(0.605183 -0.00522456 2.84473e-23)
(0.637342 -0.00468165 -3.26658e-23)
(0.654515 -0.0044419 -6.19906e-23)
(0.688616 -0.00393885 -4.01356e-23)
(0.697723 -0.00382811 -7.13691e-24)
(0.737256 -0.00340169 4.74437e-26)
(-0.227806 0.00273154 -6.19444e-20)
(-0.228769 0.00251271 -1.40646e-20)
(-0.229294 0.00204362 5.78538e-20)
(-0.229557 0.00155821 -4.35712e-20)
(-0.22954 0.001022 1.37123e-21)
(-0.229232 0.000395707 2.53227e-20)
(-0.228593 -0.000320549 -2.09562e-20)
(-0.227525 -0.00112582 1.15922e-20)
(-0.225961 -0.00202732 1.55143e-20)
(-0.223816 -0.00303351 -2.17739e-20)
(-0.220994 -0.00415217 4.07613e-20)
(-0.217387 -0.00538997 -2.92044e-20)
(-0.212873 -0.00675212 -2.36766e-20)
(-0.207329 -0.00823346 2.13779e-20)
(-0.200618 -0.00984216 4.66865e-21)
(-0.192592 -0.0115715 -9.92312e-21)
(-0.183098 -0.0134118 -7.6064e-21)
(-0.171983 -0.0153481 2.03608e-21)
(-0.159094 -0.01736 1.30528e-20)
(-0.144291 -0.0194211 -1.26252e-20)
(-0.127446 -0.0214972 -2.62754e-21)
(-0.108467 -0.0235432 1.30837e-20)
(-0.0872287 -0.0255912 -1.04465e-20)
(-0.0637231 -0.0274272 9.87531e-21)
(-0.0379987 -0.0291314 -4.22019e-21)
(-0.0100952 -0.0306304 -4.22024e-21)
(0.0199436 -0.0318773 7.53591e-21)
(0.0519376 -0.0328272 -2.01124e-21)
(0.0856477 -0.0334857 6.8377e-22)
(0.120828 -0.0338144 -1.63985e-21)
(0.15721 -0.0338148 -9.43617e-23)
(0.194467 -0.0334763 -3.23723e-22)
(0.232265 -0.0328431 5.88792e-22)
(0.270295 -0.0319064 -7.82651e-22)
(0.308136 -0.0307594 -1.23737e-22)
(0.34568 -0.0293666 3.81479e-22)
(0.382258 -0.0278873 -7.89359e-23)
(0.418317 -0.0262138 1.90525e-23)
(0.452514 -0.024603 2.8029e-23)
(0.486512 -0.0228146 9.48022e-25)
(0.517426 -0.0212546 2.47978e-22)
(0.549325 -0.0194771 -1.68199e-22)
(0.576184 -0.0181132 2.55288e-22)
(0.606554 -0.0164186 -1.80205e-22)
(0.62854 -0.0153502 -1.06199e-22)
(0.658643 -0.0137593 5.94653e-23)
(0.674663 -0.0130494 4.01645e-23)
(0.706616 -0.0115817 1.0375e-23)
(0.715082 -0.0112507 4.76027e-23)
(0.752195 -0.0100124 8.78497e-24)
(-0.149876 0.00261328 -7.87423e-20)
(-0.149695 0.00243013 5.02245e-20)
(-0.148922 0.00169514 8.1072e-21)
(-0.147773 0.000855898 -5.94067e-20)
(-0.14642 -7.04887e-05 2.30863e-20)
(-0.144765 -0.00112137 -1.2629e-20)
(-0.142708 -0.00228634 -3.16123e-21)
(-0.140208 -0.00358368 1.64465e-20)
(-0.137205 -0.00503096 1.27184e-20)
(-0.133624 -0.00664439 1.16754e-20)
(-0.12938 -0.00843853 -5.76925e-20)
(-0.124377 -0.0104281 6.43001e-20)
(-0.118498 -0.0126296 -6.60933e-20)
(-0.111639 -0.0149985 2.01973e-20)
(-0.103687 -0.0175715 3.80408e-20)
(-0.0945074 -0.020337 -4.0822e-20)
(-0.0839697 -0.0232781 1.02138e-20)
(-0.0719425 -0.0263701 -1.69951e-20)
(-0.0582985 -0.0295794 4.17932e-20)
(-0.0429202 -0.0328639 -4.48933e-21)
(-0.0257062 -0.0361729 -5.8806e-21)
(-0.00665043 -0.0394364 4.28045e-21)
(0.0144633 -0.042556 -1.11134e-20)
(0.0376444 -0.0454801 2.84936e-21)
(0.062701 -0.048159 4.74428e-21)
(0.0896416 -0.0504908 -1.14198e-20)
(0.118384 -0.0523849 3.17507e-21)
(0.148754 -0.0538416 -3.04064e-21)
(0.180549 -0.0548017 3.10048e-21)
(0.213504 -0.0552214 -6.73708e-21)
(0.247377 -0.0551129 -2.09398e-21)
(0.281847 -0.054459 5.19608e-21)
(0.316628 -0.0533351 -1.19075e-21)
(0.351419 -0.0517267 8.13851e-22)
(0.385873 -0.0497879 -6.07532e-22)
(0.419868 -0.0474621 2.07671e-23)
(0.452855 -0.0450062 2.80183e-22)
(0.485202 -0.042251 8.24883e-24)
(0.515782 -0.0396033 -1.33908e-23)
(0.546029 -0.0366867 9.0052e-23)
(0.57347 -0.0341386 -9.36256e-25)
(0.601658 -0.0312609 -3.84111e-22)
(0.625344 -0.0290396 -3.06764e-22)
(0.652058 -0.0263154 1.99529e-22)
(0.671336 -0.0245788 4.14165e-23)
(0.697769 -0.0220414 5.45964e-23)
(0.711734 -0.0208836 4.09198e-23)
(0.73983 -0.0185638 4.87458e-23)
(0.747151 -0.0180143 8.5163e-23)
(0.779891 -0.0160756 1.7591e-24)
(-0.0421571 -0.000158891 -4.20319e-20)
(-0.0407019 -9.99495e-05 -3.38005e-20)
(-0.0385819 -0.000957638 6.17452e-20)
(-0.0359261 -0.0021055 7.94577e-20)
(-0.0329793 -0.00337543 -1.19808e-19)
(-0.0297149 -0.00476654 -9.42987e-21)
(-0.0260573 -0.00631799 8.23711e-20)
(-0.0219485 -0.00804958 -6.15001e-20)
(-0.0173309 -0.00997916 -3.7107e-20)
(-0.0121417 -0.0121271 2.94405e-20)
(-0.00631553 -0.0145134 2.13359e-20)
(0.000210403 -0.0171518 1.45035e-20)
(0.00758557 -0.020036 -9.74884e-21)
(0.015897 -0.0231729 -3.82264e-20)
(0.025182 -0.0265729 6.74404e-20)
(0.0355718 -0.0302214 -6.96564e-20)
(0.0471715 -0.034096 1.00827e-20)
(0.0600832 -0.0381632 3.06201e-20)
(0.0744043 -0.0423771 -2.55255e-20)
(0.0902201 -0.0466803 5.23256e-20)
(0.107604 -0.0510079 -7.40114e-21)
(0.126581 -0.0552703 -3.85282e-21)
(0.147218 -0.0592483 -7.88116e-21)
(0.169538 -0.0630441 -5.23416e-21)
(0.193438 -0.0664771 9.92175e-21)
(0.218837 -0.069436 3.08938e-21)
(0.245643 -0.0718303 -1.06628e-21)
(0.273679 -0.073595 2.41639e-21)
(0.302768 -0.074687 -2.81084e-22)
(0.332649 -0.0750532 -1.34315e-21)
(0.363116 -0.074715 -1.51264e-21)
(0.393861 -0.0736498 3.36531e-21)
(0.424663 -0.0719649 -7.54445e-23)
(0.455231 -0.0696418 -2.69347e-21)
(0.485309 -0.066891 8.61485e-22)
(0.514763 -0.0636397 6.72083e-22)
(0.543186 -0.06023 -4.00874e-23)
(0.570847 -0.0564434 3.38099e-23)
(0.596881 -0.052812 6.98755e-23)
(0.622438 -0.0488506 -1.09664e-22)
(0.645542 -0.0453828 -7.57559e-23)
(0.669114 -0.0415127 1.99739e-22)
(0.688855 -0.0385006 2.87402e-22)
(0.711019 -0.0348715 -3.46492e-22)
(0.726936 -0.0325202 -2.02028e-22)
(0.748781 -0.0291774 1.90289e-22)
(0.760196 -0.027602 -1.63104e-22)
(0.783432 -0.0245861 4.22703e-23)
(0.789337 -0.0238204 -1.51799e-22)
(0.816524 -0.0213353 -7.13431e-24)
(0.0898685 -0.00493141 -5.59225e-20)
(0.092615 -0.0050193 -2.40057e-20)
(0.0954463 -0.00591571 1.36146e-19)
(0.0991762 -0.00721824 -6.6594e-20)
(0.103366 -0.00871981 9.30308e-20)
(0.107892 -0.0104018 -1.54136e-19)
(0.112823 -0.0122915 4.71381e-20)
(0.118231 -0.0144038 4.20988e-21)
(0.124165 -0.0167514 3.81492e-20)
(0.130672 -0.0193545 -8.00954e-21)
(0.137804 -0.0222368 -5.18719e-20)
(0.145619 -0.02541 1.64145e-20)
(0.154192 -0.0288502 8.98721e-20)
(0.163601 -0.0326134 -8.19513e-20)
(0.173902 -0.0366784 4.68589e-20)
(0.185172 -0.0410295 -2.03873e-20)
(0.197482 -0.0456402 2.94166e-20)
(0.210902 -0.0504693 2.46801e-20)
(0.225495 -0.0554604 -9.20008e-20)
(0.241311 -0.0605404 3.64796e-20)
(0.258393 -0.0656257 -3.76905e-20)
(0.276746 -0.0706081 5.29061e-20)
(0.296384 -0.0753352 -5.48949e-20)
(0.317298 -0.0797362 2.50243e-20)
(0.33941 -0.0836795 8.83984e-21)
(0.362607 -0.0870352 -4.63385e-21)
(0.386793 -0.0897022 -2.95661e-21)
(0.41179 -0.0915887 4.85894e-22)
(0.437453 -0.0926507 1.12628e-20)
(0.463537 -0.0928266 -2.0244e-21)
(0.489883 -0.0921504 -5.13875e-21)
(0.51621 -0.090596 2.78467e-21)
(0.542366 -0.0883011 -9.47335e-22)
(0.568087 -0.0852457 9.05772e-22)
(0.593211 -0.0816893 -1.0196e-21)
(0.617595 -0.0775486 -3.48254e-22)
(0.640982 -0.073235 -1.04863e-22)
(0.663539 -0.0684948 2.32347e-22)
(0.684664 -0.0639572 8.09115e-23)
(0.705211 -0.0590583 1.6378e-22)
(0.723711 -0.0547581 -3.20973e-22)
(0.74242 -0.0500237 1.31496e-22)
(0.758024 -0.0463021 -3.32878e-23)
(0.775426 -0.0419094 3.82385e-22)
(0.787847 -0.0390049 9.51478e-23)
(0.804891 -0.0350114 -2.1688e-22)
(0.813671 -0.0330522 2.2431e-23)
(0.83179 -0.0295082 -5.53818e-23)
(0.836244 -0.0285308 9.22081e-23)
(0.85754 -0.0256613 2.04003e-23)
(0.243101 -0.00953722 -3.84815e-20)
(0.246689 -0.0105889 9.73259e-20)
(0.249562 -0.0118989 -2.51956e-19)
(0.253332 -0.0134739 1.3274e-19)
(0.25783 -0.0152646 -1.12647e-19)
(0.262801 -0.0172671 7.44435e-20)
(0.268235 -0.0194997 2.6631e-20)
(0.274191 -0.0219729 -4.02166e-21)
(0.280708 -0.0246977 -7.82474e-21)
(0.287812 -0.0276949 -1.4484e-20)
(0.295538 -0.0309901 -1.49177e-20)
(0.303924 -0.0346011 4.46111e-20)
(0.313016 -0.0385281 9.21346e-22)
(0.322864 -0.0427813 -3.02847e-20)
(0.333503 -0.0473551 5.57233e-21)
(0.344975 -0.0522339 4.64299e-20)
(0.357317 -0.057388 -4.80993e-20)
(0.370564 -0.0627702 -1.13199e-20)
(0.384745 -0.0683165 2.87871e-20)
(0.399873 -0.0739423 -1.89722e-20)
(0.415957 -0.0795492 5.90115e-21)
(0.432977 -0.0850158 4.15686e-20)
(0.450911 -0.0901956 -1.54014e-20)
(0.469712 -0.0949678 -1.87754e-20)
(0.489311 -0.0991977 -1.38675e-20)
(0.509582 -0.10274 -7.65504e-21)
(0.530432 -0.105485 8.09142e-21)
(0.551691 -0.107326 5.74975e-21)
(0.573249 -0.10822 5.84577e-21)
(0.59489 -0.1081 -5.44031e-21)
(0.616513 -0.107013 2.57217e-21)
(0.637879 -0.104933 5.57935e-22)
(0.658909 -0.102022 -3.61632e-21)
(0.679379 -0.0982622 2.31202e-21)
(0.699223 -0.093951 1.2538e-21)
(0.718301 -0.0890011 -7.42777e-22)
(0.736492 -0.083874 7.07972e-22)
(0.753874 -0.0782952 -5.24479e-22)
(0.770083 -0.0729611 -7.31717e-23)
(0.785701 -0.0672589 -6.29855e-23)
(0.799714 -0.0622356 2.47628e-22)
(0.813752 -0.0567805 -4.96452e-22)
(0.825418 -0.0524446 6.35881e-22)
(0.838326 -0.0474361 -2.60604e-22)
(0.847478 -0.0440475 2.59329e-22)
(0.860029 -0.0395542 -2.01601e-22)
(0.866385 -0.0372491 -3.61108e-23)
(0.879711 -0.0333327 -1.99258e-22)
(0.882853 -0.0321534 -3.36224e-24)
(0.898604 -0.0290435 3.71085e-24)
(0.414994 -0.0130808 2.85334e-19)
(0.418236 -0.0152244 -6.28158e-20)
(0.420645 -0.0173283 1.10089e-20)
(0.423597 -0.0194267 -3.01839e-20)
(0.427313 -0.0216526 -4.11081e-20)
(0.431638 -0.0240871 1.23345e-19)
(0.436523 -0.0267501 -2.05311e-19)
(0.441998 -0.0296385 -5.73563e-22)
(0.448076 -0.0327621 2.43186e-19)
(0.454762 -0.0361501 7.75616e-20)
(0.462073 -0.0398344 -3.10276e-19)
(0.470032 -0.0438344 1.66518e-19)
(0.47866 -0.0481541 -6.11778e-20)
(0.487976 -0.0527965 -9.52082e-20)
(0.497991 -0.0577573 1.15853e-19)
(0.508714 -0.0630195 -2.63541e-21)
(0.520151 -0.0685506 -3.08276e-20)