0.3536 	0.3536 	0 	-0.552134
0.390196 	0.390196 	0 	-0.541983
0.466318 	0.466318 	8.67362e-18 	-0.459337
0.548534 	0.548534 	2.25514e-17 	-0.431504
0.637332 	0.637332 	3.19189e-17 	-0.384291
