/*--------------------------------*- C++ -*----------------------------------*\
  =========                 |
  \\      /  F ield         | OpenFOAM: The Open Source CFD Toolbox
   \\    /   O peration     | Website:  https://openfoam.org
    \\  /    A nd           | Version:  7
     \\/     M anipulation  |
\*---------------------------------------------------------------------------*/
FoamFile
{
    version     2.0;
    format      ascii;
    class       volScalarField;
    location    "15";
    object      p;
}
// * * * * * * * * * * * * * * * * * * * * * * * * * * * * * * * * * * * * * //

dimensions      [0 2 -2 0 0 0 0];

internalField   nonuniform List<scalar> 
2625
(
-0.0632687
-0.062272
-0.0612334
-0.0601553
-0.0590405
-0.0578916
-0.0567113
-0.0555022
-0.054267
-0.0530083
-0.0517287
-0.0504307
-0.0491167
-0.0477893
-0.0464508
-0.0451035
-0.0437495
-0.0423911
-0.0410302
-0.0396688
-0.0383088
-0.0369517
-0.0355994
-0.0342534
-0.032915
-0.0315855
-0.0302663
-0.0289583
-0.0276626
-0.02638
-0.0251113
-0.0238573
-0.0226184
-0.0213953
-0.0201882
-0.0189975
-0.0178234
-0.016666
-0.0155255
-0.0144018
-0.0132948
-0.0122045
-0.0111305
-0.0100726
-0.00903009
-0.00800365
-0.0069884
-0.00599929
-0.00497733
-0.00413384
-0.00270649
-0.00346755
-0.0633083
-0.0623069
-0.0612637
-0.0601814
-0.0590625
-0.0579098
-0.0567259
-0.0555135
-0.0542752
-0.0530136
-0.0517313
-0.0504309
-0.0491147
-0.0477853
-0.046445
-0.045096
-0.0437406
-0.0423809
-0.0410189
-0.0396566
-0.0382957
-0.0369381
-0.0355852
-0.0342388
-0.0329001
-0.0315705
-0.0302511
-0.0289432
-0.0276475
-0.0263651
-0.0250967
-0.023843
-0.0226045
-0.0213817
-0.020175
-0.0189848
-0.0178112
-0.0166544
-0.0155144
-0.0143912
-0.0132849
-0.0121951
-0.0111217
-0.0100645
-0.00902264
-0.00799706
-0.00698199
-0.0059955
-0.00496776
-0.00414498
-0.00264084
-0.00354051
-0.0633848
-0.0623742
-0.0613223
-0.0602316
-0.059105
-0.0579449
-0.0567541
-0.0555352
-0.0542909
-0.0530238
-0.0517364
-0.0504312
-0.0491108
-0.0477775
-0.0464336
-0.0450816
-0.0437234
-0.0423612
-0.0409971
-0.039633
-0.0382706
-0.0369117
-0.0355579
-0.0342106
-0.0328714
-0.0315415
-0.030222
-0.028914
-0.0276186
-0.0263365
-0.0250685
-0.0238154
-0.0225775
-0.0213555
-0.0201497
-0.0189603
-0.0177877
-0.0166319
-0.015493
-0.0143709
-0.0132657
-0.0121771
-0.0111049
-0.0100489
-0.00900832
-0.00798425
-0.00697008
-0.00598672
-0.0049552
-0.00414864
-0.00260623
-0.0035943
-0.063495
-0.062471
-0.0614064
-0.0603038
-0.0591659
-0.0579952
-0.0567944
-0.0555663
-0.0543133
-0.0530382
-0.0517434
-0.0504314
-0.0491048
-0.0477659
-0.046417
-0.0450604
-0.0436983
-0.0423326
-0.0409655
-0.0395987
-0.0382342
-0.0368735
-0.0355182
-0.0341699
-0.0328299
-0.0314995
-0.0301798
-0.0288719
-0.0275767
-0.0262951
-0.0250278
-0.0237755
-0.0225386
-0.0213177
-0.0201131
-0.0189251
-0.0177538
-0.0165995
-0.0154621
-0.0143416
-0.013238
-0.0121511
-0.0110806
-0.0100264
-0.00898762
-0.00796569
-0.00695299
-0.00597365
-0.00493913
-0.00414987
-0.00257634
-0.00364259
-0.0636355
-0.0625945
-0.0615137
-0.0603957
-0.0592432
-0.0580589
-0.0568454
-0.0556053
-0.0543413
-0.0530559
-0.0517517
-0.0504311
-0.0490966
-0.0477505
-0.0463952
-0.0450329
-0.0436656
-0.0422955
-0.0409245
-0.0395544
-0.0381871
-0.0368241
-0.035467
-0.0341174
-0.0327764
-0.0314454
-0.0301255
-0.0288177
-0.0275229
-0.0262419
-0.0249755
-0.0237242
-0.0224886
-0.0212691
-0.0200661
-0.0188797
-0.0177103
-0.0165578
-0.0154224
-0.0143039
-0.0132024
-0.0121176
-0.0110493
-0.00999747
-0.00896098
-0.00794177
-0.00693101
-0.00595663
-0.00491933
-0.00414955
-0.00254265
-0.00369233
-0.0638033
-0.0627417
-0.0616414
-0.0605049
-0.059335
-0.0581343
-0.0569055
-0.0556511
-0.0543738
-0.0530761
-0.0517606
-0.0504296
-0.0490857
-0.0477311
-0.0463681
-0.0449989
-0.0436255
-0.0422501
-0.0408745
-0.0395005
-0.0381299
-0.0367642
-0.0354051
-0.0340538
-0.0327117
-0.0313801
-0.0300599
-0.0287522
-0.0274579
-0.0261777
-0.0249124
-0.0236624
-0.0224284
-0.0212106
-0.0200094
-0.0188251
-0.0176578
-0.0165076
-0.0153746
-0.0142585
-0.0131595
-0.0120773
-0.0110117
-0.00996255
-0.0089288
-0.00791284
-0.00690443
-0.00593586
-0.00489587
-0.0041474
-0.00250581
-0.00374295
-0.0639952
-0.0629098
-0.0617869
-0.0606292
-0.0594392
-0.0582197
-0.0569732
-0.0557024
-0.0544098
-0.053098
-0.0517695
-0.0504266
-0.0490719
-0.0477075
-0.0463357
-0.0449586
-0.0435783
-0.0421968
-0.040816
-0.0394375
-0.0380632
-0.0366945
-0.0353329
-0.0339799
-0.0326366
-0.0313043
-0.0299839
-0.0286764
-0.0273826
-0.0261034
-0.0248393
-0.0235909
-0.0223586
-0.0211429
-0.019944
-0.018762
-0.0175972
-0.0164496
-0.0153193
-0.0142061
-0.0131099
-0.0120307
-0.0109681
-0.00992209
-0.00889148
-0.00787923
-0.0068735
-0.00591148
-0.00486881
-0.00414326
-0.00246633
-0.00379298
-0.0642081
-0.063096
-0.0619479
-0.0607662
-0.0595538
-0.0583131
-0.0570469
-0.0557577
-0.0544481
-0.0531206
-0.0517776
-0.0504215
-0.0490547
-0.0476794
-0.0462978
-0.0449121
-0.0435241
-0.0421359
-0.0407493
-0.0393659
-0.0379875
-0.0366155
-0.0352513
-0.0338963
-0.0325518
-0.0312187
-0.0298981
-0.0285909
-0.0272979
-0.0260197
-0.0247571
-0.0235105
-0.0222803
-0.0210668
-0.0198704
-0.0186911
-0.0175291
-0.0163845
-0.0152572
-0.0141471
-0.0130542
-0.0119782
-0.010919
-0.00987652
-0.00884937
-0.00784124
-0.00683846
-0.00588365
-0.00483823
-0.00413697
-0.00242419
-0.00384126
-0.0644389
-0.0632976
-0.0621217
-0.0609139
-0.0596768
-0.058413
-0.0571252
-0.055816
-0.0544877
-0.053143
-0.0517842
-0.0504137
-0.0490338
-0.0476467
-0.0462545
-0.0448593
-0.0434631
-0.0420676
-0.0406747
-0.0392861
-0.0379032
-0.0365277
-0.0351608
-0.0338038
-0.0324579
-0.0311241
-0.0298033
-0.0284965
-0.0272043
-0.0259275
-0.0246665
-0.0234219
-0.0221939
-0.020983
-0.0197893
-0.018613
-0.0174542
-0.0163128
-0.0151888
-0.0140822
-0.0129928
-0.0119205
-0.0108649
-0.00982623
-0.00880282
-0.00779916
-0.00679952
-0.00585248
-0.00480417
-0.00412835
-0.00237935
-0.00388672
-0.0646848
-0.0635118
-0.062306
-0.0610699
-0.0598063
-0.0585177
-0.0572067
-0.0558758
-0.0545276
-0.0531644
-0.0517887
-0.0504028
-0.0490089
-0.0476091
-0.0462056
-0.0448004
-0.0433953
-0.0419921
-0.0405926
-0.0391984
-0.0378109
-0.0364317
-0.0350619
-0.0337029
-0.0323556
-0.0310211
-0.0297003
-0.028394
-0.0271028
-0.0258274
-0.0245682
-0.0233258
-0.0221004
-0.0208923
-0.0197016
-0.0185285
-0.017373
-0.0162352
-0.0151148
-0.0140119
-0.0129263
-0.0118578
-0.0108062
-0.00977158
-0.00875214
-0.00775324
-0.00675686
-0.00581809
-0.00476669
-0.0041172
-0.00233186
-0.00392826
-0.0649429
-0.0637362
-0.0624985
-0.0612324
-0.0599405
-0.0586255
-0.0572898
-0.0559361
-0.0545667
-0.053184
-0.0517904
-0.0503882
-0.0489795
-0.0475665
-0.0461511
-0.0447353
-0.0433209
-0.0419097
-0.0405033
-0.0391033
-0.0377111
-0.036328
-0.0349553
-0.0335942
-0.0322456
-0.0309104
-0.0295897
-0.0282839
-0.0269939
-0.0257201
-0.024463
-0.023223
-0.0220003
-0.0207952
-0.0196078
-0.0184381
-0.0172863
-0.0161522
-0.0150357
-0.0139368
-0.0128552
-0.0117908
-0.0107432
-0.00971293
-0.00869764
-0.00770373
-0.00671068
-0.00578057
-0.00472586
-0.00410332
-0.00228184
-0.00396476
-0.0652106
-0.0639683
-0.062697
-0.0613993
-0.0600777
-0.058735
-0.0573734
-0.0559957
-0.0546041
-0.053201
-0.0517888
-0.0503695
-0.0489454
-0.0475185
-0.0460908
-0.044664
-0.0432401
-0.0418205
-0.0404071
-0.0390011
-0.037604
-0.0362171
-0.0348415
-0.0334782
-0.0321284
-0.0307927
-0.0294721
-0.0281671
-0.0268783
-0.0256063
-0.0243514
-0.023114
-0.0218943
-0.0206924
-0.0195084
-0.0183425
-0.0171945
-0.0160643
-0.0149519
-0.0138572
-0.0127798
-0.0117197
-0.0106764
-0.0096506
-0.00863959
-0.00765087
-0.00666117
-0.00574003
-0.00468176
-0.00408651
-0.00222949
-0.00399511
-0.0654853
-0.0642059
-0.0628995
-0.0615688
-0.0602163
-0.0588446
-0.0574563
-0.0560536
-0.054639
-0.0532148
-0.0517832
-0.0503464
-0.0489064
-0.0474652
-0.0460247
-0.0445867
-0.043153
-0.041725
-0.0403043
-0.0388923
-0.0374903
-0.0360994
-0.0347209
-0.0333557
-0.0320046
-0.0306685
-0.0293481
-0.028044
-0.0267567
-0.0254867
-0.0242342
-0.0229996
-0.0217829
-0.0205845
-0.0194042
-0.0182421
-0.0170981
-0.0159722
-0.014864
-0.0137736
-0.0127006
-0.0116449
-0.0106061
-0.00958491
-0.00857828
-0.00759488
-0.00660851
-0.00569654
-0.00463451
-0.00406655
-0.00217503
-0.00401822
-0.0657647
-0.0644467
-0.063104
-0.0617392
-0.0603548
-0.0589533
-0.0575371
-0.0561088
-0.0546705
-0.0532246
-0.0517732
-0.0503184
-0.0488621
-0.0474064
-0.0459529
-0.0445035
-0.0430598
-0.0416232
-0.0401952
-0.0387771
-0.0373702
-0.0359756
-0.0345942
-0.033227
-0.0318749
-0.0305385
-0.0292185
-0.0279154
-0.0266297
-0.0253618
-0.0241119
-0.0228802
-0.0216669
-0.020472
-0.0192956
-0.0181376
-0.0169978
-0.0158762
-0.0147724
-0.0136865
-0.012618
-0.0115669
-0.0105327
-0.00951615
-0.00851397
-0.00753597
-0.00655287
-0.00565019
-0.00458424
-0.00404322
-0.00211877
-0.00403303
-0.0660464
-0.0646888
-0.0633088
-0.0619089
-0.0604917
-0.0590596
-0.0576151
-0.0561605
-0.0546981
-0.05323
-0.0517584
-0.0502852
-0.0488125
-0.047342
-0.0458754
-0.0444145
-0.0429607
-0.0415155
-0.0400802
-0.0386561
-0.0372443
-0.0358459
-0.0344618
-0.0330928
-0.0317397
-0.0304031
-0.0290837
-0.0277818
-0.0264979
-0.0252322
-0.0239851
-0.0227565
-0.0215467
-0.0203556
-0.0191832
-0.0180293
-0.0168939
-0.0157768
-0.0146776
-0.0135962
-0.0125324
-0.011486
-0.0104564
-0.00944462
-0.0084469
-0.00747434
-0.00649446
-0.00560105
-0.00453111
-0.00401631
-0.00206108
-0.00403854
-0.0663285
-0.0649303
-0.0635121
-0.0620764
-0.0606258
-0.0591626
-0.0576892
-0.0562079
-0.054721
-0.0532305
-0.0517384
-0.0502468
-0.0487574
-0.047272
-0.0457922
-0.0443197
-0.0428559
-0.0414021
-0.0399596
-0.0385296
-0.0371131
-0.035711
-0.0343242
-0.0329536
-0.0315996
-0.0302631
-0.0289443
-0.0276438
-0.0263618
-0.0250986
-0.0238543
-0.0226291
-0.0214229
-0.0202357
-0.0190674
-0.0179179
-0.016787
-0.0156744
-0.0145799
-0.0135033
-0.0124442
-0.0114024
-0.0103775
-0.00937056
-0.00837733
-0.00741018
-0.00643345
-0.0055492
-0.00447532
-0.00398561
-0.00200236
-0.0040338
-0.0666091
-0.0651695
-0.0637125
-0.0622405
-0.0607559
-0.0592612
-0.0577586
-0.0562504
-0.0547387
-0.0532256
-0.051713
-0.0502028
-0.0486967
-0.0471964
-0.0457036
-0.0442195
-0.0427458
-0.0412835
-0.0398339
-0.038398
-0.0369768
-0.0355712
-0.034182
-0.0328098
-0.0314553
-0.0301188
-0.0288009
-0.0275019
-0.026222
-0.0249614
-0.0237202
-0.0224984
-0.0212959
-0.0201128
-0.0189488
-0.0178037
-0.0166774
-0.0155695
-0.0144798
-0.0134079
-0.0123536
-0.0113166
-0.0102964
-0.00929424
-0.00830548
-0.00734368
-0.00637004
-0.0054947
-0.00441707
-0.0039509
-0.00194309
-0.00401792
-0.0668862
-0.0654049
-0.0639086
-0.0623999
-0.0608811
-0.0593546
-0.0578226
-0.0562874
-0.0547509
-0.0532151
-0.0516819
-0.0501531
-0.0486304
-0.0471154
-0.0456095
-0.0441141
-0.0426305
-0.0411598
-0.0397033
-0.0382617
-0.0368361
-0.0354272
-0.0340356
-0.0326621
-0.031307
-0.0299709
-0.028654
-0.0273567
-0.026079
-0.0248211
-0.0235831
-0.0223649
-0.0211663
-0.0199874
-0.0188277
-0.0176872
-0.0165656
-0.0154624
-0.0143775
-0.0133104
-0.012261
-0.0112288
-0.0102134
-0.00921591
-0.00823158
-0.00727502
-0.00630444
-0.00543763
-0.00435663
-0.00391199
-0.00188377
-0.00399011
-0.0671584
-0.0656349
-0.0640991
-0.0625535
-0.0610004
-0.0594421
-0.0578807
-0.0563184
-0.0547571
-0.0531987
-0.0516451
-0.0500979
-0.0485587
-0.047029
-0.0455102
-0.0440036
-0.0425103
-0.0410315
-0.0395682
-0.0381212
-0.0366913
-0.0352792
-0.0338856
-0.0325108
-0.0311555
-0.0298198
-0.0285042
-0.0272086
-0.0259333
-0.0246784
-0.0234436
-0.0222291
-0.0210346
-0.0198598
-0.0187047
-0.0175688
-0.0164519
-0.0153536
-0.0142735
-0.0132113
-0.0121666
-0.0111393
-0.0101285
-0.00913577
-0.00815587
-0.00720436
-0.00623686
-0.00537804
-0.00429427
-0.00386866
-0.00182494
-0.00394963
-0.0674243
-0.0658585
-0.0642831
-0.0627005
-0.0611131
-0.0595229
-0.0579322
-0.056343
-0.054757
-0.0531763
-0.0516024
-0.0500369
-0.0484815
-0.0469374
-0.0454059
-0.0438883
-0.0423857
-0.040899
-0.0394291
-0.0379768
-0.0365429
-0.0351279
-0.0337323
-0.0323566
-0.0310011
-0.0296661
-0.0283518
-0.0270582
-0.0257855
-0.0245335
-0.0233022
-0.0220915
-0.020901
-0.0197307
-0.01858
-0.0174488
-0.0163367
-0.0152432
-0.0141681
-0.0131107
-0.0120709
-0.0110483
-0.0100423
-0.00905407
-0.00807856
-0.00713187
-0.00616751
-0.00531599
-0.00423029
-0.00382074
-0.00176718
-0.00389585
-0.0676825
-0.0660744
-0.0644595
-0.0628401
-0.0612184
-0.0595967
-0.0579769
-0.0563609
-0.0547506
-0.0531477
-0.0515538
-0.0499704
-0.0483989
-0.0468407
-0.0452969
-0.0437686
-0.0422569
-0.0407625
-0.0392863
-0.0378291
-0.0363913
-0.0349736
-0.0335763
-0.0321998
-0.0308444
-0.0295102
-0.0281974
-0.026906
-0.0256359
-0.024387
-0.0231593
-0.0219524
-0.0207661
-0.0196002
-0.0184542
-0.0173277
-0.0162204
-0.0151318
-0.0140615
-0.013009
-0.011974
-0.0109561
-0.00995474
-0.008971
-0.00799988
-0.00705771
-0.00609663
-0.00525154
-0.00416501
-0.00376802
-0.00171108
-0.00382824
-0.067932
-0.0662818
-0.0646275
-0.0629716
-0.061316
-0.059663
-0.0580143
-0.056372
-0.0547376
-0.0531129
-0.0514994
-0.0498984
-0.0483113
-0.0467393
-0.0451835
-0.0436448
-0.0421242
-0.0406225
-0.0391403
-0.0376783
-0.036237
-0.0348168
-0.033418
-0.032041
-0.0306858
-0.0293526
-0.0280414
-0.0267523
-0.0254849
-0.0242393
-0.0230152
-0.0218123
-0.0206303
-0.0194688
-0.0183274
-0.0172057
-0.0161033
-0.0150195
-0.0139541
-0.0129064
-0.0118762
-0.0108629
-0.00986622
-0.00888677
-0.00792002
-0.00698202
-0.00602445
-0.00518474
-0.00409878
-0.00371035
-0.00165724
-0.00374634
-0.0681718
-0.0664798
-0.0647866
-0.0630944
-0.0614054
-0.0597214
-0.0580444
-0.0563761
-0.0547181
-0.053072
-0.0514393
-0.0498211
-0.0482188
-0.0466334
-0.0450659
-0.0435172
-0.0419881
-0.0404793
-0.0389915
-0.037525
-0.0360804
-0.0346579
-0.0332579
-0.0318805
-0.0305257
-0.0291937
-0.0278844
-0.0265976
-0.0253331
-0.0240909
-0.0228705
-0.0216716
-0.0204939
-0.0193369
-0.0182001
-0.0170832
-0.0159856
-0.0149067
-0.0138461
-0.0128032
-0.0117778
-0.0107689
-0.0097769
-0.00880155
-0.00783921
-0.00690494
-0.0059512
-0.00511563
-0.00403197
-0.00364756
-0.00160629
-0.00364981
-0.0684011
-0.0666678
-0.0649361
-0.0632082
-0.0614862
-0.0597718
-0.0580669
-0.0563732
-0.0546921
-0.0530251
-0.0513736
-0.0497387
-0.0481216
-0.0465232
-0.0449444
-0.0433861
-0.0418489
-0.0403334
-0.0388402
-0.0373696
-0.0359219
-0.0344975
-0.0330964
-0.0317188
-0.0303647
-0.029034
-0.0277266
-0.0264423
-0.0251808
-0.023942
-0.0227254
-0.0215306
-0.0203572
-0.0192047
-0.0180726
-0.0169604
-0.0158676
-0.0147936
-0.0137378
-0.0126996
-0.0116789
-0.0106745
-0.009687
-0.00871553
-0.00775766
-0.0068266
-0.00587713
-0.00504426
-0.00396494
-0.00357952
-0.00155882
-0.00353841
-0.0686193
-0.0668452
-0.0650756
-0.0633127
-0.0615582
-0.0598141
-0.0580819
-0.0563633
-0.0546597
-0.0529724
-0.0513026
-0.0496515
-0.04802
-0.0464091
-0.0448196
-0.043252
-0.041707
-0.0401852
-0.0386869
-0.0372124
-0.035762
-0.0343358
-0.0329339
-0.0315563
-0.030203
-0.0288738
-0.0275684
-0.0262867
-0.0250284
-0.023793
-0.0225802
-0.0213896
-0.0202205
-0.0190726
-0.0179452
-0.0168377
-0.0157497
-0.0146804
-0.0136295
-0.0125958
-0.0115799
-0.0105796
-0.00959672
-0.00862888
-0.00767555
-0.00674714
-0.00580249
-0.00497067
-0.00389808
-0.00350608
-0.00151541
-0.00341199
-0.0688259
-0.0670117
-0.065205
-0.0634076
-0.0616214
-0.0598482
-0.0580894
-0.0563465
-0.054621
-0.0529139
-0.0512265
-0.0495597
-0.0479145
-0.0462915
-0.0446915
-0.0431152
-0.0415629
-0.040035
-0.038532
-0.0370539
-0.035601
-0.0341734
-0.0327709
-0.0313935
-0.0300411
-0.0287135
-0.0274103
-0.0261314
-0.0248762
-0.0236444
-0.0224355
-0.0212489
-0.0200842
-0.0189408
-0.0178181
-0.0167153
-0.0156321
-0.0145675
-0.0135213
-0.0124921
-0.0114808
-0.0104846
-0.00950626
-0.00854176
-0.0075931
-0.00666668
-0.00572753
-0.00489489
-0.00383176
-0.00342716
-0.00147663
-0.00327053
-0.0690205
-0.0671671
-0.0653239
-0.0634929
-0.0616758
-0.0598741
-0.0580894
-0.056323
-0.0545762
-0.0528501
-0.0511456
-0.0494637
-0.0478051
-0.0461706
-0.0445608
-0.042976
-0.0414168
-0.0398833
-0.0383759
-0.0368946
-0.0354394
-0.0340105
-0.0326076
-0.0312306
-0.0298793
-0.0285535
-0.0272526
-0.0259765
-0.0247245
-0.0234963
-0.0222913
-0.0211089
-0.0199486
-0.0188097
-0.0176915
-0.0165935
-0.0155149
-0.0144549
-0.0134134
-0.0123887
-0.0113818
-0.0103897
-0.00941579
-0.00845431
-0.0075105
-0.00658532
-0.00565248
-0.00481697
-0.00376637
-0.00334266
-0.00144301
-0.00311407
-0.0692029
-0.0673111
-0.0654324
-0.0635686
-0.0617213
-0.0598921
-0.0580822
-0.056293
-0.0545256
-0.052781
-0.0510601
-0.0493637
-0.0476925
-0.0460469
-0.0444276
-0.042835
-0.0412691
-0.0397304
-0.0382189
-0.0367346
-0.0352776
-0.0338476
-0.0324445
-0.0310681
-0.0297181
-0.0283941
-0.0270956
-0.0258223
-0.0245737
-0.0233491
-0.022148
-0.0209698
-0.0198138
-0.0186794
-0.0175658
-0.0164723
-0.0153984
-0.014343
-0.0133061
-0.0122856
-0.0112833
-0.0102949
-0.00932549
-0.00836668
-0.00742793
-0.00650318
-0.00557761
-0.00473695
-0.00370229
-0.00325254
-0.00141503
-0.00294279
-0.0693729
-0.0674436
-0.0655304
-0.0636347
-0.0617582
-0.0599022
-0.058068
-0.0562568
-0.0544696
-0.0527072
-0.0509705
-0.0492602
-0.0475768
-0.0459208
-0.0442925
-0.0426923
-0.0411204
-0.0395767
-0.0380615
-0.0365745
-0.0351158
-0.033685
-0.0322819
-0.0309063
-0.0295576
-0.0282356
-0.0269397
-0.0256693
-0.024424
-0.023203
-0.0220059
-0.0208318
-0.0196802
-0.0185502
-0.0174411
-0.0163522
-0.0152829
-0.0142319
-0.0131994
-0.0121832
-0.0111853
-0.0102004
-0.00923552
-0.008279
-0.00734558
-0.00642035
-0.00550313
-0.00465486
-0.00363985
-0.00315676
-0.00139312
-0.00275696
-0.0695305
-0.0675649
-0.065618
-0.0636914
-0.0617866
-0.0599047
-0.0580471
-0.0562146
-0.0544083
-0.0526289
-0.0508771
-0.0491534
-0.0474584
-0.0457924
-0.0441557
-0.0425485
-0.0409708
-0.0394226
-0.037904
-0.0364146
-0.0349544
-0.033523
-0.0321202
-0.0307454
-0.0293983
-0.0280783
-0.026785
-0.0255176
-0.0242756
-0.0230584
-0.0218652
-0.0206952
-0.0195478
-0.0184222
-0.0173177
-0.0162332
-0.0151684
-0.0141217
-0.0130937
-0.0120815
-0.0110879
-0.0101064
-0.00914605
-0.00819141
-0.00726362
-0.00633694
-0.00542929
-0.00457077
-0.00357941
-0.00305534
-0.00137766
-0.00255693
-0.0696758
-0.0676749
-0.0656955
-0.063739
-0.0618067
-0.0599
-0.0580197
-0.0561668
-0.0543421
-0.0525464
-0.0507801
-0.0490438
-0.0473378
-0.0456624
-0.0440177
-0.0424038
-0.0408208
-0.0392684
-0.0377467
-0.0362552
-0.0347938
-0.0333621
-0.0319596
-0.0305858
-0.0292404
-0.0279226
-0.0266318
-0.0253675
-0.0241289
-0.0229153
-0.021726
-0.0205602
-0.019417
-0.0182957
-0.0171956
-0.0161155
-0.0150551
-0.0140127
-0.012989
-0.0119807
-0.0109914
-0.010013
-0.00905722
-0.008104
-0.00718223
-0.00625305
-0.00535631
-0.00448471
-0.00352128
-0.00294832
-0.00136897
-0.00234316
-0.069809
-0.0677739
-0.065763
-0.0637776
-0.061819
-0.0598882
-0.0579862
-0.0561137
-0.0542715
-0.0524601
-0.0506801
-0.0489317
-0.0472153
-0.0455309
-0.0438788
-0.0422587
-0.0406707
-0.0391145
-0.0375899
-0.0360966
-0.0346343
-0.0332023
-0.0318004
-0.0304278
-0.0290841
-0.0277685
-0.0264805
-0.0252192
-0.023984
-0.0227741
-0.0215887
-0.0204269
-0.0192879
-0.0181709
-0.0170751
-0.0159993
-0.0149432
-0.0139049
-0.0128855
-0.0118809
-0.0108959
-0.00992028
-0.00896916
-0.00801691
-0.00710155
-0.00616876
-0.00528438
-0.00439675
-0.00346573
-0.00283577
-0.00136729
-0.00211619
-0.0699303
-0.0678622
-0.0658209
-0.0638077
-0.0618237
-0.0598698
-0.0579469
-0.0560557
-0.0541967
-0.0523705
-0.0505773
-0.0488175
-0.0470912
-0.0453985
-0.0437392
-0.0421134
-0.0405208
-0.0389611
-0.0374341
-0.0359392
-0.034476
-0.0330441
-0.0316428
-0.0302716
-0.0289297
-0.0276164
-0.0263311
-0.025073
-0.0238412
-0.0226349
-0.0214533
-0.0202955
-0.0191607
-0.0180479
-0.0169563
-0.0158846
-0.0148328
-0.0137986
-0.0127833
-0.0117823
-0.0108014
-0.00982842
-0.00888202
-0.00793023
-0.00702174
-0.00608416
-0.0052137
-0.00430696
-0.00341303
-0.00271782
-0.00137279
-0.00187665
-0.0700401
-0.0679401
-0.0658696
-0.0638296
-0.0618212
-0.0598452
-0.0579023
-0.0559932
-0.0541182
-0.0522778
-0.0504722
-0.0487016
-0.046966
-0.0452653
-0.0435995
-0.0419683
-0.0403715
-0.0388086
-0.0372793
-0.0357831
-0.0343194
-0.0328877
-0.0314872
-0.0301173
-0.0287774
-0.0274665
-0.0261839
-0.0249289
-0.0237005
-0.0224978
-0.0213201
-0.0201662
-0.0190355
-0.0179267
-0.0168393
-0.0157718
-0.014724
-0.0136937
-0.0126825
-0.0116849
-0.0107081
-0.0097375
-0.00879589
-0.00784406
-0.00694293
-0.00599935
-0.00514445
-0.00421542
-0.00336338
-0.0025946
-0.00138558
-0.00162523
-0.0701386
-0.0680079
-0.0659093
-0.0638437
-0.0618119
-0.0598147
-0.0578528
-0.0559265
-0.0540363
-0.0521825
-0.0503651
-0.0485842
-0.0468398
-0.0451318
-0.0434598
-0.0418237
-0.040223
-0.0386573
-0.037126
-0.0356287
-0.0341646
-0.0327332
-0.0313337
-0.0299653
-0.0286273
-0.0273189
-0.0260391
-0.0247872
-0.0235621
-0.0223631
-0.0211891
-0.0200391
-0.0189123
-0.0178076
-0.0167242
-0.0156607
-0.014617
-0.0135904
-0.0125832
-0.0115888
-0.0106161
-0.00964761
-0.00871091
-0.00775849
-0.00686525
-0.00591441
-0.00507679
-0.00412222
-0.00331696
-0.00246632
-0.00140568
-0.0013627
-0.0702262
-0.0680662
-0.0659406
-0.0638503
-0.0617962
-0.0597788
-0.0577986
-0.0558561
-0.0539515
-0.0520849
-0.0502563
-0.0484658
-0.0467132
-0.0449982
-0.0433206
-0.0416798
-0.0400756
-0.0385073
-0.0369743
-0.0354761
-0.0340119
-0.0325809
-0.0311825
-0.0298157
-0.0284798
-0.0271738
-0.0258968
-0.024648
-0.0234263
-0.0222308
-0.0210605
-0.0199143
-0.0187915
-0.0176907
-0.0166112
-0.0155516
-0.0145118
-0.0134889
-0.0124855
-0.0114942
-0.0105256
-0.00955885
-0.00862716
-0.00767361
-0.00678881
-0.00582943
-0.00501083
-0.00402748
-0.00327392
-0.00233322
-0.00143305
-0.00108989
-0.0703035
-0.0681152
-0.0659638
-0.06385
-0.0617745
-0.0597378
-0.0577404
-0.0557824
-0.053864
-0.0519853
-0.0501463
-0.0483467
-0.0465863
-0.0448649
-0.0431819
-0.041537
-0.0399295
-0.0383589
-0.0368245
-0.0353256
-0.0338613
-0.032431
-0.0310337
-0.0296686
-0.0283348
-0.0270313
-0.0257571
-0.0245114
-0.023293
-0.022101
-0.0209343
-0.0197919
-0.0186729
-0.0175759
-0.0165004
-0.0154445
-0.0144086
-0.0133891
-0.0123895
-0.0114011
-0.0104365
-0.00947128
-0.00854473
-0.00758951
-0.00671371
-0.0057445
-0.00494671
-0.00393132
-0.00323434
-0.00219555
-0.00146755
-0.000807687
-0.0703709
-0.0681556
-0.0659795
-0.0638432
-0.0617473
-0.0596923
-0.0576783
-0.0557056
-0.0537743
-0.0518842
-0.0500352
-0.0482271
-0.0464595
-0.0447321
-0.0430442
-0.0413954
-0.0397851
-0.0382124
-0.0366768
-0.0351773
-0.0337132
-0.0322836
-0.0308876
-0.0295242
-0.0281925
-0.0268915
-0.0256202
-0.0243775
-0.0231624
-0.0219738
-0.0208108
-0.019672
-0.0185567
-0.0174635
-0.0163917
-0.0153395
-0.0143073
-0.0132912
-0.0122953
-0.0113096
-0.0103489
-0.00938499
-0.0084637
-0.00750626
-0.00664005
-0.00565972
-0.00488451
-0.00383386
-0.00319827
-0.00205363
-0.00150901
-0.000517017
-0.0704289
-0.0681878
-0.065988
-0.0638303
-0.061715
-0.0596425
-0.0576129
-0.0556263
-0.0536827
-0.0517818
-0.0499235
-0.0481074
-0.0463331
-0.0446
-0.0429077
-0.0412553
-0.0396424
-0.0380679
-0.0365312
-0.0350315
-0.0335677
-0.0321389
-0.0307442
-0.0293827
-0.0280531
-0.0267546
-0.0254861
-0.0242464
-0.0230346
-0.0218494
-0.0206898
-0.0195547
-0.0184431
-0.0173535
-0.0162854
-0.0152366
-0.014208
-0.0131951
-0.0122029
-0.0112197
-0.010263
-0.00930004
-0.00838415
-0.00742394
-0.00656789
-0.00557517
-0.0048243
-0.00373527
-0.00316572
-0.00190781
-0.00155716
-0.000218843
-0.070478
-0.0682122
-0.0659899
-0.0638118
-0.061678
-0.0595889
-0.0575445
-0.0555447
-0.0535895
-0.0516785
-0.0498114
-0.0479879
-0.0462072
-0.044469
-0.0427725
-0.041117
-0.0395016
-0.0379256
-0.0363881
-0.0348882
-0.0334248
-0.031997
-0.0306037
-0.029244
-0.0279166
-0.0266207
-0.0253549
-0.0241182
-0.0229096
-0.0217277
-0.0205716
-0.01944
-0.0183319
-0.0172458
-0.0161813
-0.015136
-0.0141109
-0.0131011
-0.0121124
-0.0111315
-0.0101787
-0.00921648
-0.00830613
-0.00734262
-0.0064973
-0.00549097
-0.00476612
-0.0036357
-0.00313666
-0.00175846
-0.00161168
8.58388e-05
-0.0705187
-0.0682293
-0.0659856
-0.063788
-0.0616368
-0.0595319
-0.0574734
-0.0554612
-0.0534951
-0.0515745
-0.0496993
-0.0478687
-0.0460822
-0.0443392
-0.0426389
-0.0409804
-0.039363
-0.0377857
-0.0362475
-0.0347475
-0.0332847
-0.0318579
-0.0304662
-0.0291083
-0.0277832
-0.0264897
-0.0252267
-0.023993
-0.0227875
-0.0216089
-0.0204561
-0.0193279
-0.0182233
-0.0171406
-0.0160796
-0.0150375
-0.0140159
-0.013009
-0.0120238
-0.0110451
-0.0100962
-0.00913438
-0.00822969
-0.00726237
-0.00642832
-0.00540719
-0.00471001
-0.00353534
-0.00311102
-0.00160598
-0.00167218
0.000396012
-0.0705516
-0.0682397
-0.0659756
-0.0637595
-0.0615916
-0.0594719
-0.0574001
-0.0553762
-0.0533997
-0.0514702
-0.0495873
-0.0477502
-0.0459583
-0.0442108
-0.042507
-0.0408459
-0.0392267
-0.0376482
-0.0361096
-0.0346097
-0.0331475
-0.0317218
-0.0303316
-0.0289756
-0.0276527
-0.0263618
-0.0251015
-0.0238707
-0.0226683
-0.0214929
-0.0203434
-0.0192185
-0.0181173
-0.017038
-0.0159802
-0.0149414
-0.0139231
-0.012919
-0.0119371
-0.0109604
-0.0100154
-0.00905378
-0.00815487
-0.00718324
-0.00636099
-0.00532395
-0.00465596
-0.00343437
-0.00308869
-0.00145082
-0.00173822
0.000710649
-0.070577
-0.0682438
-0.0659603
-0.0637267
-0.061543
-0.0594092
-0.0573249
-0.0552899
-0.0533037
-0.0513658
-0.0494756
-0.0476325
-0.0458356
-0.0440841
-0.042377
-0.0407136
-0.0390927
-0.0375133
-0.0359744
-0.0344747
-0.0330133
-0.0315888
-0.0302001
-0.0288461
-0.0275254
-0.0262369
-0.0249794
-0.0237515
-0.022552
-0.0213798
-0.0202335
-0.0191119
-0.0180139
-0.0169378
-0.0158833
-0.0148475
-0.0138324
-0.012831
-0.0118524
-0.0108776
-0.00993638
-0.00897472
-0.0080817
-0.00710531
-0.00629533
-0.00524135
-0.00460396
-0.00333301
-0.00306952
-0.00129342
-0.00180933
0.00102872
-0.0705955
-0.068242
-0.0659402
-0.0636899
-0.0614913
-0.0593441
-0.057248
-0.0552026
-0.0532073
-0.0512615
-0.0493647
-0.0475158
-0.0457143
-0.043959
-0.0422491
-0.0405836
-0.0389612
-0.0373811
-0.035842
-0.0343427
-0.032882
-0.0314588
-0.0300718
-0.0287197
-0.0274012
-0.0261152
-0.0248603
-0.0236352
-0.0224388
-0.0212695
-0.0201264
-0.0190079
-0.0179131
-0.0168401
-0.0157888
-0.014756
-0.013744
-0.0127452
-0.0117697
-0.0107966
-0.00985918
-0.00889724
-0.00801021
-0.00702863
-0.00623136
-0.00515949
-0.00455398
-0.00323145
-0.00305333
-0.00113425
-0.00188497
0.0013492
-0.0706077
-0.0682349
-0.0659156
-0.0636496
-0.0614369
-0.0592771
-0.0571698
-0.0551145
-0.0531107
-0.0511576
-0.0492545
-0.0474004
-0.0455945
-0.0438359
-0.0421233
-0.0404559
-0.0388324
-0.0372516
-0.0357125
-0.0342136
-0.0327539
-0.031332
-0.0299466
-0.0285964
-0.0272802
-0.0259966
-0.0247443
-0.023522
-0.0223284
-0.0211622
-0.0200221
-0.0189067
-0.0178149
-0.016745
-0.0156967
-0.0146667
-0.0136577
-0.0126614
-0.011689
-0.0107175
-0.0097838
-0.00882137
-0.00794041
-0.00695325
-0.00616907
-0.00507847
-0.00450595
-0.00312993
-0.00303992
-0.000973808
-0.0019646
0.00167107
-0.0706139
-0.0682228
-0.0658869
-0.0636061
-0.06138
-0.0592083
-0.0570905
-0.0550261
-0.0530142
-0.0510542
-0.0491453
-0.0472863
-0.0454765
-0.0437147
-0.0419998
-0.0403307
-0.0387062
-0.037125
-0.0355859
-0.0340876
-0.0326288
-0.0312083
-0.0298245
-0.0284763
-0.0271623
-0.0258811
-0.0246314
-0.0234118
-0.0222211
-0.0210578
-0.0199206
-0.0188081
-0.0177194
-0.0166524
-0.0156071
-0.0145798
-0.0135737
-0.0125797
-0.0116103
-0.0106402
-0.00971025
-0.00874715
-0.0078723
-0.00687924
-0.00610845
-0.00499841
-0.00445982
-0.00302866
-0.00302907
-0.000812584
-0.00204764
0.00199333
-0.0706146
-0.0682062
-0.0658546
-0.0635597
-0.061321
-0.0591381
-0.0570105
-0.0549373
-0.052918
-0.0509516
-0.0490372
-0.0471738
-0.0453603
-0.0435957
-0.0418787
-0.0402081
-0.0385827
-0.0370012
-0.0354623
-0.0339646
-0.0325069
-0.0310877
-0.0297057
-0.0283594
-0.0270476
-0.0257688
-0.0245216
-0.0233047
-0.0221167
-0.0209562
-0.0198219
-0.0187123
-0.0176265
-0.0165623
-0.0155198
-0.0144952
-0.0134919
-0.0125001
-0.0115337
-0.0105648
-0.00963853
-0.00867458
-0.0078059
-0.00680664
-0.00604951
-0.0049194
-0.00441551
-0.00292788
-0.00302053
-0.000651087
-0.00213349
0.00231502
-0.0706103
-0.0681855
-0.0658191
-0.0635108
-0.0612602
-0.0590668
-0.0569298
-0.0548486
-0.0528222
-0.0508499
-0.0489304
-0.0470629
-0.045246
-0.0434788
-0.0417599
-0.0400881
-0.038462
-0.0368803
-0.0353417
-0.0338447
-0.0323881
-0.0309703
-0.0295899
-0.0282456
-0.026936
-0.0256595
-0.0244148
-0.0232005
-0.0220152
-0.0208574
-0.019726
-0.0186192
-0.0175361
-0.0164746
-0.015435
-0.0144129
-0.0134123
-0.0124225
-0.011459
-0.0104914
-0.00956865
-0.0086037
-0.00774119
-0.00673548
-0.00599218
-0.00484155
-0.00437291
-0.00282782
-0.00301403
-0.000489799
-0.00222153
0.00263521
-0.0706013
-0.0681609
-0.0657805
-0.0634597
-0.0611979
-0.0589945
-0.0568488
-0.05476
-0.0527271
-0.0507491
-0.048825
-0.0469536
-0.0451338
-0.0433642
-0.0416436
-0.0399707
-0.038344
-0.0367623
-0.0352241
-0.0337279
-0.0322724
-0.030856
-0.0294774
-0.028135
-0.0268275
-0.0255533
-0.0243111
-0.0230993
-0.0219166
-0.0207615
-0.0196328
-0.0185287
-0.0174484
-0.0163895
-0.0153525
-0.0143328
-0.0133349
-0.0123471
-0.0113864
-0.0104198
-0.00950058
-0.00853451
-0.00767816
-0.00666582
-0.00593645
-0.00476496
-0.00433193
-0.00272869
-0.00300928
-0.000329218
-0.00231114
0.002953
-0.0705881
-0.068133
-0.0657393
-0.0634066
-0.0611342
-0.0589216
-0.0567677
-0.0546717
-0.0526327
-0.0506496
-0.0487212
-0.0468463
-0.0450236
-0.0432519
-0.0415298
-0.039856
-0.0382289
-0.0366472
-0.0351094
-0.0336141
-0.0321597
-0.0307448
-0.0293679
-0.0280275
-0.0267221
-0.0254502
-0.0242103
-0.023001
-0.0218209
-0.0206684
-0.0195423
-0.0184408
-0.0173631
-0.0163068
-0.0152724
-0.014255
-0.0132596
-0.0122737
-0.0113157
-0.01035
-0.00943432
-0.00846701
-0.00761678
-0.00659768
-0.00588226
-0.00468971
-0.00429244
-0.00263073
-0.00300602
-0.000169826
-0.00240171
0.00326753
-0.070571
-0.0681019
-0.0656957
-0.0633518
-0.0610696
-0.0588481
-0.0566866
-0.054584
-0.0525393
-0.0505513
-0.0486189
-0.0467407
-0.0449156
-0.043142
-0.0414186
-0.0397439
-0.0381166
-0.036535
-0.0349978
-0.0335034
-0.0320502
-0.0306368
-0.0292616
-0.027923
-0.0266197
)
;

boundaryField
{
    inlet
    {
        type            zeroGradient;
    }
    outlet
    {
        type            fixedValue;
        value           uniform 0;
    }
    cylinder
    {