/*--------------------------------*- C++ -*----------------------------------*\
  =========                 |
  \\      /  F ield         | OpenFOAM: The Open Source CFD Toolbox
   \\    /   O peration     | Website:  https://openfoam.org
    \\  /    A nd           | Version:  7
     \\/     M anipulation  |
\*---------------------------------------------------------------------------*/
FoamFile
{
    version     2.0;
    format      ascii;
    class       volVectorField;
    location    "15";
    object      U;
}
// * * * * * * * * * * * * * * * * * * * * * * * * * * * * * * * * * * * * * //

dimensions      [0 1 -1 0 0 0 0];

internalField   nonuniform List<vector> 
2625
(
(1.2525 0.000430424 0)
(1.25171 0.000447716 0)
(1.25087 0.000463616 0)
(1.24999 0.000478171 0)
(1.24908 0.000491428 0)
(1.24813 0.000503439 0)
(1.24714 0.000514259 0)
(1.24612 0.000523944 0)
(1.24507 0.000532555 0)
(1.24398 0.000540151 0)
(1.24287 0.000546794 0)
(1.24173 0.00055255 0)
(1.24056 0.000557482 0)
(1.23936 0.000561655 0)
(1.23814 0.000565137 0)
(1.2369 0.000567992 0)
(1.23563 0.000570286 0)
(1.23434 0.000572087 0)
(1.23303 0.000573458 0)
(1.23169 0.000574464 0)
(1.23034 0.000575171 0)
(1.22896 0.000575639 0)
(1.22757 0.000575933 0)
(1.22615 0.000576111 0)
(1.22472 0.000576234 0)
(1.22326 0.00057636 0)
(1.22179 0.000576545 0)
(1.22029 0.000576846 0)
(1.21877 0.000577314 0)
(1.21723 0.000578003 0)
(1.21566 0.000578964 0)
(1.21407 0.000580246 0)
(1.21245 0.000581897 0)
(1.2108 0.000583963 0)
(1.20913 0.00058649 0)
(1.20742 0.00058952 0)
(1.20568 0.000593096 0)
(1.2039 0.00059726 0)
(1.20209 0.000602051 0)
(1.20023 0.000607509 0)
(1.19833 0.00061367 0)
(1.19638 0.000620575 0)
(1.19438 0.000628258 0)
(1.19233 0.000636764 0)
(1.19022 0.00064611 0)
(1.18805 0.000656414 0)
(1.18581 0.000667449 0)
(1.18349 0.00068017 0)
(1.18114 0.000691491 0)
(1.17853 0.000711276 0)
(1.17647 0.000706785 0)
(1.17206 0.000758157 0)
(1.25258 0.00128743 0)
(1.25177 0.00133885 0)
(1.25093 0.00138613 0)
(1.25004 0.00142939 0)
(1.24911 0.0014688 0)
(1.24815 0.00150449 0)
(1.24715 0.00153664 0)
(1.24612 0.00156542 0)
(1.24506 0.00159099 0)
(1.24396 0.00161354 0)
(1.24284 0.00163326 0)
(1.24168 0.00165033 0)
(1.2405 0.00166495 0)
(1.2393 0.00167731 0)
(1.23806 0.00168761 0)
(1.23681 0.00169605 0)
(1.23553 0.00170281 0)
(1.23423 0.00170811 0)
(1.2329 0.00171212 0)
(1.23156 0.00171505 0)
(1.23019 0.00171708 0)
(1.2288 0.0017184 0)
(1.2274 0.0017192 0)
(1.22597 0.00171965 0)
(1.22453 0.00171994 0)
(1.22306 0.00172023 0)
(1.22157 0.0017207 0)
(1.22006 0.0017215 0)
(1.21853 0.0017228 0)
(1.21698 0.00172476 0)
(1.2154 0.00172752 0)
(1.2138 0.00173123 0)
(1.21217 0.00173603 0)
(1.21051 0.00174207 0)
(1.20882 0.00174947 0)
(1.20711 0.00175837 0)
(1.20536 0.00176889 0)
(1.20357 0.00178116 0)
(1.20174 0.00179528 0)
(1.19988 0.00181139 0)
(1.19797 0.00182958 0)
(1.19601 0.00184999 0)
(1.19401 0.0018727 0)
(1.19195 0.00189786 0)
(1.18983 0.00192552 0)
(1.18765 0.001956 0)
(1.1854 0.00198876 0)
(1.18307 0.00202613 0)
(1.18072 0.00206095 0)
(1.1781 0.00211567 0)
(1.17605 0.0021213 0)
(1.17163 0.00224461 0)
(1.25272 0.00214202 0)
(1.25189 0.00222661 0)
(1.25102 0.00230436 0)
(1.25012 0.00237551 0)
(1.24917 0.00244028 0)
(1.24819 0.00249894 0)
(1.24717 0.00255176 0)
(1.24611 0.002599 0)
(1.24503 0.00264097 0)
(1.24391 0.00267796 0)
(1.24276 0.00271027 0)
(1.24159 0.00273822 0)
(1.24038 0.00276213 0)
(1.23915 0.00278232 0)
(1.2379 0.0027991 0)
(1.23662 0.0028128 0)
(1.23532 0.00282375 0)
(1.234 0.00283227 0)
(1.23265 0.00283867 0)
(1.23128 0.00284328 0)
(1.22989 0.0028464 0)
(1.22849 0.00284835 0)
(1.22706 0.00284942 0)
(1.22561 0.00284992 0)
(1.22414 0.00285013 0)
(1.22265 0.00285034 0)
(1.22114 0.00285083 0)
(1.21961 0.00285187 0)
(1.21806 0.00285372 0)
(1.21648 0.00285663 0)
(1.21489 0.00286086 0)
(1.21326 0.00286664 0)
(1.21161 0.00287422 0)
(1.20994 0.00288381 0)
(1.20823 0.00289565 0)
(1.20649 0.00290993 0)
(1.20472 0.00292687 0)
(1.20292 0.00294668 0)
(1.20107 0.00296954 0)
(1.19919 0.00299565 0)
(1.19726 0.00302519 0)
(1.19529 0.00305834 0)
(1.19327 0.0030953 0)
(1.19119 0.00313626 0)
(1.18906 0.00318134 0)
(1.18687 0.00323101 0)
(1.18461 0.0032846 0)
(1.18227 0.00334519 0)
(1.17991 0.00340397 0)
(1.17727 0.00348799 0)
(1.17523 0.00352275 0)
(1.1708 0.00368368 0)
(1.2529 0.00300442 0)
(1.25205 0.00312114 0)
(1.25115 0.00322839 0)
(1.25021 0.0033265 0)
(1.24923 0.00341578 0)
(1.24821 0.00349659 0)
(1.24716 0.00356931 0)
(1.24608 0.00363431 0)
(1.24496 0.00369201 0)
(1.24381 0.00374282 0)
(1.24263 0.00378715 0)
(1.24142 0.00382544 0)
(1.24019 0.00385813 0)
(1.23893 0.00388566 0)
(1.23764 0.00390847 0)
(1.23633 0.00392702 0)
(1.235 0.00394175 0)
(1.23364 0.0039531 0)
(1.23226 0.00396152 0)
(1.23086 0.00396744 0)
(1.22944 0.00397129 0)
(1.228 0.0039735 0)
(1.22654 0.00397449 0)
(1.22506 0.00397467 0)
(1.22356 0.00397444 0)
(1.22204 0.00397418 0)
(1.2205 0.00397429 0)
(1.21894 0.00397514 0)
(1.21735 0.00397709 0)
(1.21575 0.0039805 0)
(1.21412 0.0039857 0)
(1.21247 0.00399303 0)
(1.21079 0.00400282 0)
(1.20908 0.00401537 0)
(1.20735 0.004031 0)
(1.20558 0.00404999 0)
(1.20379 0.00407264 0)
(1.20195 0.00409923 0)
(1.20009 0.00413001 0)
(1.19818 0.00416526 0)
(1.19623 0.00420523 0)
(1.19423 0.00425018 0)
(1.19219 0.00430035 0)
(1.19009 0.00435603 0)
(1.18794 0.00441738 0)
(1.18573 0.00448502 0)
(1.18346 0.00455816 0)
(1.1811 0.00464059 0)
(1.17873 0.00472221 0)
(1.17607 0.00483354 0)
(1.17403 0.00489598 0)
(1.16958 0.00509006 0)
(1.25311 0.00388382 0)
(1.25221 0.00403155 0)
(1.25127 0.00416723 0)
(1.25029 0.00429127 0)
(1.24927 0.00440409 0)
(1.24821 0.00450614 0)
(1.24712 0.00459789 0)
(1.24599 0.00467985 0)
(1.24483 0.0047525 0)
(1.24364 0.00481639 0)
(1.24242 0.00487205 0)
(1.24117 0.00492003 0)
(1.2399 0.00496088 0)
(1.23859 0.00499516 0)
(1.23727 0.00502345 0)
(1.23591 0.0050463 0)
(1.23454 0.00506428 0)
(1.23314 0.00507796 0)
(1.23172 0.00508789 0)
(1.23028 0.00509463 0)
(1.22882 0.00509873 0)
(1.22734 0.00510072 0)
(1.22584 0.00510113 0)
(1.22431 0.00510049 0)
(1.22277 0.0050993 0)
(1.22121 0.00509805 0)
(1.21963 0.00509724 0)
(1.21803 0.00509734 0)
(1.21641 0.0050988 0)
(1.21476 0.00510207 0)
(1.2131 0.0051076 0)
(1.21141 0.00511579 0)
(1.20969 0.00512707 0)
(1.20795 0.00514183 0)
(1.20618 0.00516045 0)
(1.20438 0.00518331 0)
(1.20255 0.00521078 0)
(1.20068 0.00524319 0)
(1.19878 0.00528091 0)
(1.19684 0.00532425 0)
(1.19486 0.00537355 0)
(1.19284 0.00542912 0)
(1.19077 0.00549128 0)
(1.18864 0.00556039 0)
(1.18647 0.00563664 0)
(1.18423 0.00572083 0)
(1.18194 0.005812 0)
(1.17956 0.00591469 0)
(1.17718 0.00601745 0)
(1.1745 0.00615425 0)
(1.17246 0.00624103 0)
(1.168 0.00646699 0)
(1.2533 0.00478851 0)
(1.25235 0.00496601 0)
(1.25136 0.00512894 0)
(1.25033 0.00527779 0)
(1.24926 0.00541308 0)
(1.24815 0.00553534 0)
(1.24701 0.00564516 0)
(1.24583 0.00574312 0)
(1.24462 0.00582985 0)
(1.24338 0.00590597 0)
(1.24211 0.00597215 0)
(1.24081 0.00602903 0)
(1.23948 0.0060773 0)
(1.23813 0.00611762 0)
(1.23675 0.00615068 0)
(1.23535 0.00617716 0)
(1.23392 0.00619775 0)
(1.23247 0.00621312 0)
(1.231 0.00622394 0)
(1.22951 0.00623088 0)
(1.228 0.0062346 0)
(1.22647 0.00623574 0)
(1.22492 0.00623495 0)
(1.22335 0.00623285 0)
(1.22176 0.00623005 0)
(1.22015 0.00622715 0)
(1.21853 0.00622474 0)
(1.21688 0.00622337 0)
(1.21521 0.00622361 0)
(1.21352 0.00622599 0)
(1.2118 0.00623105 0)
(1.21007 0.00623928 0)
(1.20831 0.00625118 0)
(1.20652 0.00626723 0)
(1.20471 0.00628789 0)
(1.20287 0.00631362 0)
(1.201 0.00634485 0)
(1.1991 0.00638201 0)
(1.19716 0.0064255 0)
(1.19518 0.00647573 0)
(1.19317 0.00653309 0)
(1.19111 0.00659796 0)
(1.18901 0.00667071 0)
(1.18686 0.00675178 0)
(1.18465 0.0068414 0)
(1.18239 0.00694052 0)
(1.18008 0.00704802 0)
(1.17767 0.00716915 0)
(1.17528 0.00729115 0)
(1.17257 0.00745125 0)
(1.17054 0.00755995 0)
(1.16605 0.00781476 0)
(1.25344 0.00572596 0)
(1.25244 0.0059319 0)
(1.25139 0.00612079 0)
(1.2503 0.0062932 0)
(1.24917 0.00644975 0)
(1.248 0.00659107 0)
(1.2468 0.00671784 0)
(1.24556 0.00683075 0)
(1.24429 0.00693052 0)
(1.24299 0.0070179 0)
(1.24166 0.00709364 0)
(1.2403 0.00715852 0)
(1.23892 0.00721332 0)
(1.2375 0.00725883 0)
(1.23607 0.00729584 0)
(1.23461 0.00732515 0)
(1.23312 0.00734754 0)
(1.23162 0.00736382 0)
(1.23009 0.00737476 0)
(1.22854 0.00738114 0)
(1.22697 0.00738372 0)
(1.22539 0.00738326 0)
(1.22378 0.00738051 0)
(1.22215 0.00737618 0)
(1.22051 0.00737099 0)
(1.21885 0.00736563 0)
(1.21716 0.00736078 0)
(1.21546 0.00735711 0)
(1.21374 0.00735526 0)
(1.212 0.00735586 0)
(1.21023 0.00735951 0)
(1.20845 0.0073668 0)
(1.20664 0.00737832 0)
(1.2048 0.00739462 0)
(1.20294 0.00741624 0)
(1.20106 0.00744371 0)
(1.19914 0.00747752 0)
(1.1972 0.00751818 0)
(1.19521 0.00756617 0)
(1.1932 0.00762194 0)
(1.19115 0.00768595 0)
(1.18905 0.00775865 0)
(1.18691 0.00784046 0)
(1.18473 0.00793189 0)
(1.1825 0.00803319 0)
(1.18021 0.00814546 0)
(1.17787 0.00826743 0)
(1.17544 0.00840504 0)
(1.17303 0.00854418 0)
(1.1703 0.00872526 0)
(1.16827 0.00885362 0)
(1.16377 0.00913349 0)
(1.25351 0.00670291 0)
(1.25243 0.0069358 0)
(1.25132 0.00714922 0)
(1.25016 0.00734382 0)
(1.24896 0.00752029 0)
(1.24772 0.00767938 0)
(1.24645 0.00782184 0)
(1.24515 0.00794849 0)
(1.24381 0.00806014 0)
(1.24245 0.00815764 0)
(1.24105 0.00824186 0)
(1.23962 0.00831367 0)
(1.23817 0.00837397 0)
(1.23669 0.00842366 0)
(1.23519 0.00846364 0)
(1.23366 0.00849481 0)
(1.23211 0.00851808 0)
(1.23054 0.00853434 0)
(1.22895 0.00854449 0)
(1.22734 0.0085494 0)
(1.2257 0.00854995 0)
(1.22405 0.00854698 0)
(1.22238 0.00854135 0)
(1.2207 0.00853388 0)
(1.21899 0.00852537 0)
(1.21727 0.00851662 0)
(1.21552 0.00850839 0)
(1.21376 0.00850144 0)
(1.21198 0.0084965 0)
(1.21018 0.00849428 0)
(1.20836 0.00849547 0)
(1.20652 0.00850074 0)
(1.20466 0.00851075 0)
(1.20277 0.00852613 0)
(1.20086 0.0085475 0)
(1.19893 0.00857544 0)
(1.19696 0.00861054 0)
(1.19497 0.00865335 0)
(1.19295 0.00870443 0)
(1.19089 0.00876428 0)
(1.18879 0.00883343 0)
(1.18666 0.00891238 0)
(1.18448 0.0090016 0)
(1.18227 0.00910166 0)
(1.18 0.00921285 0)
(1.17768 0.00933641 0)
(1.17532 0.00947085 0)
(1.17287 0.00962286 0)
(1.17044 0.00977694 0)
(1.16768 0.00997651 0)
(1.16566 0.0101222 0)
(1.16114 0.0104231 0)
(1.25346 0.00772536 0)
(1.2523 0.00798359 0)
(1.25111 0.00821996 0)
(1.24987 0.0084352 0)
(1.2486 0.0086301 0)
(1.24729 0.0088055 0)
(1.24594 0.00896226 0)
(1.24456 0.00910127 0)
(1.24315 0.00922347 0)
(1.24171 0.0093298 0)
(1.24023 0.00942123 0)
(1.23873 0.00949875 0)
(1.23721 0.00956337 0)
(1.23565 0.00961607 0)
(1.23408 0.00965788 0)
(1.23248 0.00968981 0)
(1.23086 0.00971285 0)
(1.22922 0.00972802 0)
(1.22755 0.00973631 0)
(1.22587 0.0097387 0)
(1.22417 0.00973616 0)
(1.22245 0.00972964 0)
(1.22071 0.00972009 0)
(1.21896 0.00970843 0)
(1.21719 0.00969554 0)
(1.2154 0.00968232 0)
(1.21359 0.00966963 0)
(1.21177 0.00965829 0)
(1.20992 0.00964914 0)
(1.20806 0.00964295 0)
(1.20618 0.0096405 0)
(1.20429 0.00964255 0)
(1.20237 0.00964981 0)
(1.20042 0.009663 0)
(1.19846 0.00968279 0)
(1.19647 0.00970986 0)
(1.19446 0.00974484 0)
(1.19241 0.00978836 0)
(1.19034 0.00984102 0)
(1.18824 0.00990341 0)
(1.1861 0.00997608 0)
(1.18393 0.0100596 0)
(1.18172 0.0101545 0)
(1.17947 0.0102614 0)
(1.17717 0.0103806 0)
(1.17482 0.0105135 0)
(1.17243 0.0106584 0)
(1.16996 0.0108226 0)
(1.16751 0.0109893 0)
(1.16474 0.0112048 0)
(1.16271 0.0113656 0)
(1.15819 0.0116832 0)
(1.25324 0.00879859 0)
(1.252 0.00908038 0)
(1.25072 0.00933795 0)
(1.2494 0.00957213 0)
(1.24805 0.0097838 0)
(1.24665 0.00997388 0)
(1.24522 0.0101433 0)
(1.24376 0.0102932 0)
(1.24226 0.0104244 0)
(1.24074 0.0105381 0)
(1.23918 0.0106353 0)
(1.2376 0.0107172 0)
(1.236 0.0107847 0)
(1.23436 0.0108391 0)
(1.23271 0.0108815 0)
(1.23103 0.0109129 0)
(1.22933 0.0109344 0)
(1.22761 0.0109473 0)
(1.22588 0.0109525 0)
(1.22412 0.0109512 0)
(1.22234 0.0109443 0)
(1.22055 0.0109331 0)
(1.21874 0.0109184 0)
(1.21692 0.0109014 0)
(1.21507 0.0108829 0)
(1.21322 0.010864 0)
(1.21134 0.0108457 0)
(1.20945 0.0108287 0)
(1.20754 0.0108141 0)
(1.20562 0.0108027 0)
(1.20368 0.0107954 0)
(1.20172 0.0107929 0)
(1.19974 0.010796 0)
(1.19774 0.0108057 0)
(1.19572 0.0108225 0)
(1.19368 0.0108472 0)
(1.19161 0.0108806 0)
(1.18952 0.0109233 0)
(1.1874 0.010976 0)
(1.18525 0.0110393 0)
(1.18308 0.0111138 0)
(1.18086 0.0112002 0)
(1.17861 0.011299 0)
(1.17633 0.0114109 0)
(1.174 0.0115361 0)
(1.17162 0.0116763 0)
(1.16921 0.0118295 0)
(1.16671 0.0120038 0)
(1.16426 0.0121809 0)
(1.16146 0.0124095 0)
(1.15944 0.0125832 0)
(1.15491 0.0129131 0)
(1.25283 0.00992714 0)
(1.2515 0.0102305 0)
(1.25012 0.0105074 0)
(1.24871 0.0107586 0)
(1.24726 0.0109852 0)
(1.24578 0.0111881 0)
(1.24426 0.0113685 0)
(1.2427 0.0115275 0)
(1.24112 0.0116661 0)
(1.23951 0.0117855 0)
(1.23786 0.0118869 0)
(1.2362 0.0119715 0)
(1.2345 0.0120404 0)
(1.23279 0.012095 0)
(1.23105 0.0121364 0)
(1.22929 0.0121659 0)
(1.22751 0.0121845 0)
(1.22571 0.0121937 0)
(1.22389 0.0121944 0)
(1.22205 0.012188 0)
(1.2202 0.0121756 0)
(1.21833 0.0121582 0)
(1.21645 0.0121372 0)
(1.21455 0.0121134 0)
(1.21263 0.0120881 0)
(1.2107 0.0120622 0)
(1.20876 0.0120369 0)
(1.2068 0.012013 0)
(1.20482 0.0119916 0)
(1.20284 0.0119736 0)
(1.20083 0.01196 0)
(1.19881 0.0119515 0)
(1.19677 0.0119492 0)
(1.19471 0.0119538 0)
(1.19264 0.0119662 0)
(1.19054 0.0119871 0)
(1.18843 0.0120174 0)
(1.18628 0.0120577 0)
(1.18412 0.0121088 0)
(1.18193 0.0121713 0)
(1.17971 0.012246 0)
(1.17746 0.0123334 0)
(1.17517 0.0124343 0)
(1.17285 0.0125492 0)
(1.1705 0.0126786 0)
(1.16809 0.0128241 0)
(1.16566 0.0129835 0)
(1.16314 0.0131655 0)
(1.16068 0.0133506 0)
(1.15787 0.0135898 0)
(1.15585 0.0137742 0)
(1.15133 0.0141118 0)
(1.25218 0.0111148 0)
(1.25074 0.0114376 0)
(1.24927 0.0117315 0)
(1.24776 0.0119977 0)
(1.24621 0.0122372 0)
(1.24463 0.012451 0)
(1.24301 0.0126404 0)
(1.24136 0.0128065 0)
(1.23968 0.0129506 0)
(1.23797 0.0130739 0)
(1.23624 0.0131777 0)
(1.23448 0.0132632 0)
(1.2327 0.0133319 0)
(1.23089 0.013385 0)
(1.22906 0.0134239 0)
(1.22722 0.0134497 0)
(1.22535 0.0134639 0)
(1.22347 0.0134678 0)
(1.22156 0.0134626 0)
(1.21965 0.0134496 0)
(1.21771 0.0134301 0)
(1.21577 0.0134053 0)
(1.2138 0.0133763 0)
(1.21183 0.0133445 0)
(1.20984 0.0133108 0)
(1.20784 0.0132766 0)
(1.20582 0.0132428 0)
(1.20379 0.0132106 0)
(1.20175 0.013181 0)
(1.1997 0.013155 0)
(1.19763 0.0131336 0)
(1.19555 0.0131178 0)
(1.19345 0.0131085 0)
(1.19133 0.0131066 0)
(1.1892 0.013113 0)
(1.18706 0.0131285 0)
(1.18489 0.0131541 0)
(1.1827 0.0131903 0)
(1.18049 0.0132381 0)
(1.17826 0.0132982 0)
(1.176 0.0133713 0)
(1.17371 0.013458 0)
(1.17139 0.0135591 0)
(1.16904 0.0136753 0)
(1.16666 0.0138068 0)
(1.16424 0.0139555 0)
(1.16178 0.014119 0)
(1.15925 0.0143065 0)
(1.15678 0.0144975 0)
(1.15396 0.0147444 0)
(1.15196 0.0149375 0)
(1.14744 0.0152781 0)
(1.25124 0.0123643 0)
(1.2497 0.0127042 0)
(1.24812 0.013013 0)
(1.24651 0.0132918 0)
(1.24485 0.0135419 0)
(1.24316 0.0137644 0)
(1.24144 0.0139606 0)
(1.23969 0.0141318 0)
(1.23792 0.0142793 0)
(1.23611 0.0144044 0)
(1.23428 0.0145086 0)
(1.23242 0.0145933 0)
(1.23055 0.0146598 0)
(1.22865 0.0147096 0)
(1.22673 0.0147441 0)
(1.22479 0.0147646 0)
(1.22284 0.0147727 0)
(1.22087 0.0147696 0)
(1.21888 0.0147568 0)
(1.21688 0.0147356 0)
(1.21486 0.0147074 0)
(1.21284 0.0146735 0)
(1.2108 0.0146351 0)
(1.20874 0.0145936 0)
(1.20668 0.0145502 0)
(1.20461 0.0145061 0)
(1.20252 0.0144624 0)
(1.20042 0.0144203 0)
(1.19832 0.014381 0)
(1.1962 0.0143455 0)
(1.19406 0.0143149 0)
(1.19192 0.0142902 0)
(1.18977 0.0142723 0)
(1.1876 0.0142624 0)
(1.18541 0.0142613 0)
(1.18321 0.0142699 0)
(1.181 0.0142891 0)
(1.17877 0.0143197 0)
(1.17651 0.0143625 0)
(1.17424 0.0144185 0)
(1.17194 0.0144882 0)
(1.16962 0.0145724 0)
(1.16728 0.0146719 0)
(1.1649 0.0147874 0)
(1.1625 0.0149191 0)
(1.16005 0.0150691 0)
(1.15759 0.0152345 0)
(1.15505 0.0154253 0)
(1.15257 0.01562 0)
(1.14974 0.0158719 0)
(1.14775 0.016072 0)
(1.14326 0.0164108 0)
(1.24999 0.0136779 0)
(1.24833 0.0140322 0)
(1.24664 0.0143533 0)
(1.24491 0.0146423 0)
(1.24315 0.0149005 0)
(1.24135 0.0151293 0)
(1.23953 0.01533 0)
(1.23767 0.0155039 0)
(1.23579 0.0156525 0)
(1.23388 0.0157774 0)
(1.23195 0.0158799 0)
(1.23 0.0159615 0)
(1.22802 0.0160238 0)
(1.22603 0.0160683 0)
(1.22402 0.0160965 0)
(1.22199 0.0161098 0)
(1.21994 0.0161098 0)
(1.21788 0.016098 0)
(1.21581 0.0160759 0)
(1.21373 0.0160448 0)
(1.21163 0.0160062 0)
(1.20952 0.0159615 0)
(1.20741 0.0159121 0)
(1.20528 0.0158594 0)
(1.20314 0.0158045 0)
(1.20099 0.0157489 0)
(1.19884 0.0156938 0)
(1.19667 0.0156403 0)
(1.1945 0.0155898 0)
(1.19232 0.0155432 0)
(1.19013 0.0155018 0)
(1.18793 0.0154667 0)
(1.18572 0.0154388 0)
(1.18349 0.0154193 0)
(1.18126 0.015409 0)
(1.17901 0.0154091 0)
(1.17675 0.0154203 0)
(1.17448 0.0154437 0)
(1.17219 0.01548 0)
(1.16988 0.01553 0)
(1.16755 0.0155947 0)
(1.1652 0.0156747 0)
(1.16283 0.0157707 0)
(1.16044 0.0158837 0)
(1.15801 0.0160138 0)
(1.15556 0.016163 0)
(1.15308 0.0163284 0)
(1.15053 0.0165203 0)
(1.14807 0.0167166 0)
(1.14523 0.0169708 0)
(1.14326 0.0171762 0)
(1.1388 0.0175083 0)
(1.24838 0.0150566 0)
(1.2466 0.0154226 0)
(1.24479 0.0157531 0)
(1.24295 0.0160496 0)
(1.24107 0.0163133 0)
(1.23916 0.0165458 0)
(1.23723 0.0167483 0)
(1.23526 0.0169226 0)
(1.23327 0.01707 0)
(1.23126 0.0171921 0)
(1.22923 0.0172906 0)
(1.22717 0.017367 0)
(1.2251 0.0174229 0)
(1.22301 0.0174599 0)
(1.2209 0.0174797 0)
(1.21878 0.0174839 0)
(1.21665 0.0174739 0)
(1.2145 0.0174515 0)
(1.21234 0.0174181 0)
(1.21018 0.0173752 0)
(1.208 0.0173245 0)
(1.20581 0.0172674 0)
(1.20362 0.0172052 0)
(1.20142 0.0171395 0)
(1.19921 0.0170717 0)
(1.19699 0.017003 0)
(1.19477 0.0169348 0)
(1.19254 0.0168683 0)
(1.1903 0.0168049 0)
(1.18806 0.0167458 0)
(1.18581 0.0166921 0)
(1.18356 0.0166449 0)
(1.1813 0.0166055 0)
(1.17903 0.0165748 0)
(1.17675 0.0165539 0)
(1.17446 0.0165438 0)
(1.17216 0.0165455 0)
(1.16984 0.01656 0)
(1.16752 0.016588 0)
(1.16518 0.0166306 0)
(1.16283 0.0166885 0)
(1.16045 0.0167626 0)
(1.15806 0.0168535 0)
(1.15565 0.0169621 0)
(1.15321 0.0170887 0)
(1.15075 0.0172352 0)
(1.14827 0.0173988 0)
(1.14572 0.0175896 0)
(1.14327 0.0177856 0)
(1.14044 0.0180393 0)
(1.13849 0.0182486 0)
(1.13406 0.0185692 0)
(1.24637 0.0165005 0)
(1.24447 0.0168751 0)
(1.24254 0.0172122 0)
(1.24057 0.0175132 0)
(1.23858 0.0177796 0)
(1.23656 0.0180129 0)
(1.23451 0.0182147 0)
(1.23243 0.0183866 0)
(1.23034 0.0185301 0)
(1.22822 0.0186471 0)
(1.22608 0.0187391 0)
(1.22393 0.0188079 0)
(1.22176 0.0188551 0)
(1.21957 0.0188825 0)
(1.21737 0.0188917 0)
(1.21516 0.0188845 0)
(1.21293 0.0188625 0)
(1.2107 0.0188275 0)
(1.20846 0.0187809 0)
(1.20621 0.0187245 0)
(1.20395 0.0186597 0)
(1.20169 0.0185883 0)
(1.19942 0.0185117 0)
(1.19715 0.0184313 0)
(1.19487 0.0183488 0)
(1.19259 0.0182653 0)
(1.1903 0.0181825 0)
(1.18801 0.0181015 0)
(1.18572 0.0180237 0)
(1.18342 0.0179504 0)
(1.18112 0.0178828 0)
(1.17882 0.0178221 0)
(1.17651 0.0177695 0)
(1.17419 0.0177262 0)
(1.17187 0.0176931 0)
(1.16954 0.0176713 0)
(1.16721 0.017662 0)
(1.16486 0.017666 0)
(1.16251 0.0176843 0)
(1.16015 0.0177177 0)
(1.15777 0.0177673 0)
(1.15538 0.0178337 0)
(1.15298 0.0179178 0)
(1.15055 0.0180203 0)
(1.14811 0.0181417 0)
(1.14565 0.0182837 0)
(1.14317 0.0184435 0)
(1.14063 0.0186313 0)
(1.13819 0.0188252 0)
(1.13537 0.0190758 0)
(1.13345 0.0192879 0)
(1.12907 0.0195922 0)
(1.24393 0.0180089 0)
(1.2419 0.0183889 0)
(1.23985 0.0187294 0)
(1.23776 0.0190318 0)
(1.23565 0.0192979 0)
(1.23351 0.0195291 0)
(1.23135 0.0197272 0)
(1.22916 0.0198939 0)
(1.22696 0.0200309 0)
(1.22473 0.02014 0)
(1.22249 0.020223 0)
(1.22024 0.0202817 0)
(1.21797 0.0203178 0)
(1.21569 0.0203332 0)
(1.2134 0.0203296 0)
(1.2111 0.0203089 0)
(1.20879 0.0202728 0)
(1.20647 0.020223 0)
(1.20415 0.0201613 0)
(1.20182 0.0200893 0)
(1.19949 0.0200088 0)
(1.19715 0.0199212 0)
(1.19481 0.0198283 0)
(1.19247 0.0197316 0)
(1.19013 0.0196326 0)
(1.18779 0.0195328 0)
(1.18544 0.0194337 0)
(1.18309 0.0193366 0)
(1.18075 0.0192428 0)
(1.1784 0.0191538 0)
(1.17605 0.0190709 0)
(1.1737 0.0189952 0)
(1.17135 0.0189279 0)
(1.169 0.0188704 0)
(1.16664 0.0188236 0)
(1.16428 0.0187887 0)
(1.16192 0.0187668 0)
(1.15955 0.0187589 0)
(1.15717 0.0187658 0)
(1.15479 0.0187887 0)
(1.1524 0.0188284 0)
(1.15 0.0188856 0)
(1.14758 0.0189612 0)
(1.14516 0.0190561 0)
(1.14272 0.0191705 0)
(1.14025 0.0193063 0)
(1.13779 0.0194607 0)
(1.13526 0.0196435 0)
(1.13284 0.0198336 0)
(1.13004 0.0200786 0)
(1.12815 0.0202924 0)
(1.12384 0.0205757 0)
(1.24103 0.0195799 0)
(1.23887 0.0199619 0)
(1.23669 0.0203024 0)
(1.23449 0.020603 0)
(1.23225 0.0208655 0)
(1.23 0.0210916 0)
(1.22772 0.021283 0)
(1.22543 0.0214416 0)
(1.22312 0.0215693 0)
(1.22079 0.0216678 0)
(1.21845 0.0217391 0)
(1.21609 0.0217851 0)
(1.21373 0.0218076 0)
(1.21135 0.0218086 0)
(1.20897 0.02179 0)
(1.20659 0.0217535 0)
(1.20419 0.0217011 0)
(1.2018 0.0216345 0)
(1.1994 0.0215557 0)
(1.19699 0.0214662 0)
(1.19459 0.0213679 0)
(1.19219 0.0212625 0)
(1.18978 0.0211516 0)
(1.18738 0.0210368 0)
(1.18498 0.0209197 0)
(1.18258 0.0208019 0)
(1.18018 0.0206849 0)
(1.17778 0.0205701 0)
(1.17539 0.0204589 0)
(1.173 0.0203527 0)
(1.1706 0.0202529 0)
(1.16822 0.0201607 0)
(1.16583 0.0200775 0)
(1.16344 0.0200043 0)
(1.16106 0.0199424 0)
(1.15867 0.019893 0)
(1.15629 0.0198571 0)
(1.1539 0.0198357 0)
(1.15151 0.01983 0)
(1.14911 0.0198408 0)
(1.14671 0.0198691 0)
(1.14431 0.0199157 0)
(1.14189 0.0199814 0)
(1.13947 0.020067 0)
(1.13704 0.020173 0)
(1.13459 0.0203009 0)
(1.13214 0.0204483 0)
(1.12963 0.0206242 0)
(1.12724 0.0208092 0)
(1.12447 0.0210459 0)
(1.12261 0.0212608 0)
(1.11838 0.0215184 0)
(1.23764 0.0212107 0)
(1.23536 0.0215911 0)
(1.23305 0.0219281 0)
(1.23072 0.0222236 0)
(1.22837 0.0224792 0)
(1.226 0.0226969 0)
(1.22361 0.0228786 0)
(1.22121 0.0230261 0)
(1.21879 0.0231414 0)
(1.21636 0.0232266 0)
(1.21392 0.0232835 0)
(1.21147 0.0233142 0)
(1.20902 0.0233207 0)
(1.20656 0.0233048 0)
(1.20409 0.0232687 0)
(1.20162 0.0232143 0)
(1.19915 0.0231434 0)
(1.19668 0.023058 0)
(1.1942 0.02296 0)
(1.19173 0.0228511 0)
(1.18926 0.0227332 0)
(1.1868 0.0226081 0)
(1.18433 0.0224774 0)
(1.18187 0.0223429 0)
(1.17942 0.0222062 0)
(1.17697 0.0220688 0)
(1.17452 0.0219324 0)
(1.17208 0.0217984 0)
(1.16965 0.0216683 0)
(1.16722 0.0215435 0)
(1.16479 0.0214254 0)
(1.16237 0.0213154 0)
(1.15996 0.0212147 0)
(1.15754 0.0211246 0)
(1.15514 0.0210462 0)
(1.15273 0.0209809 0)
(1.15033 0.0209297 0)
(1.14793 0.0208937 0)
(1.14553 0.0208739 0)
(1.14313 0.0208713 0)
(1.14073 0.0208868 0)
(1.13833 0.0209213 0)
(1.13592 0.0209758 0)
(1.13351 0.0210507 0)
(1.13109 0.0211468 0)
(1.12866 0.0212654 0)
(1.12624 0.0214044 0)
(1.12376 0.0215716 0)
(1.1214 0.0217501 0)
(1.11867 0.0219762 0)
(1.11685 0.0221917 0)
(1.1127 0.0224191 0)
(1.23374 0.0228977 0)
(1.23133 0.0232728 0)
(1.2289 0.0236028 0)
(1.22645 0.0238895 0)
(1.22398 0.0241349 0)
(1.2215 0.0243409 0)
(1.219 0.0245096 0)
(1.21649 0.0246429 0)
(1.21398 0.024743 0)
(1.21145 0.0248119 0)
(1.20891 0.0248517 0)
(1.20638 0.0248645 0)
(1.20383 0.0248523 0)
(1.20129 0.0248173 0)
(1.19874 0.0247614 0)
(1.1962 0.0246867 0)
(1.19365 0.0245953 0)
(1.19111 0.024489 0)
(1.18857 0.0243698 0)
(1.18604 0.0242396 0)
(1.18351 0.0241004 0)
(1.18099 0.0239538 0)
(1.17847 0.0238017 0)
(1.17596 0.0236458 0)
(1.17346 0.0234878 0)
(1.17096 0.0233294 0)
(1.16848 0.0231721 0)
(1.166 0.0230175 0)
(1.16353 0.0228671 0)
(1.16107 0.0227224 0)
(1.15862 0.0225847 0)
(1.15617 0.0224555 0)
(1.15374 0.0223361 0)
(1.15131 0.0222278 0)
(1.14889 0.0221319 0)
(1.14647 0.0220494 0)
(1.14406 0.0219816 0)
(1.14166 0.0219297 0)
(1.13926 0.0218946 0)
(1.13687 0.0218773 0)
(1.13447 0.0218789 0)
(1.13208 0.0219001 0)
(1.12969 0.021942 0)
(1.12729 0.0220049 0)
(1.1249 0.0220899 0)
(1.12249 0.0221976 0)
(1.1201 0.0223269 0)
(1.11765 0.0224838 0)
(1.11534 0.022655 0)
(1.11265 0.022868 0)
(1.11088 0.0230839 0)
(1.10683 0.0232767 0)
(1.2293 0.0246363 0)
(1.22677 0.0250022 0)
(1.22422 0.0253214 0)
(1.22166 0.0255958 0)
(1.21908 0.0258275 0)
(1.21648 0.0260185 0)
(1.21388 0.026171 0)
(1.21127 0.0262871 0)
(1.20866 0.026369 0)
(1.20604 0.0264188 0)
(1.20342 0.0264388 0)
(1.20079 0.026431 0)
(1.19817 0.0263977 0)
(1.19555 0.026341 0)
(1.19293 0.0262631 0)
(1.19031 0.026166 0)
(1.1877 0.0260519 0)
(1.1851 0.0259227 0)
(1.1825 0.0257805 0)
(1.17991 0.0256272 0)
(1.17733 0.0254648 0)
(1.17476 0.0252951 0)
(1.17219 0.02512 0)
(1.16964 0.0249412 0)
(1.1671 0.0247605 0)
(1.16457 0.0245796 0)
(1.16206 0.0244001 0)
(1.15955 0.0242236 0)
(1.15705 0.0240516 0)
(1.15457 0.0238857 0)
(1.1521 0.0237272 0)
(1.14964 0.0235777 0)
(1.14719 0.0234385 0)
(1.14475 0.0233108 0)
(1.14232 0.023196 0)
(1.13991 0.0230953 0)
(1.1375 0.0230099 0)
(1.1351 0.0229409 0)
(1.13271 0.0228894 0)
(1.13032 0.0228564 0)
(1.12794 0.0228429 0)
(1.12557 0.0228497 0)
(1.1232 0.0228778 0)
(1.12083 0.0229276 0)
(1.11847 0.0230002 0)
(1.1161 0.0230958 0)
(1.11375 0.0232143 0)
(1.11134 0.0233594 0)
(1.10907 0.0235222 0)
(1.10644 0.02372 0)
(1.10471 0.0239362 0)
(1.10078 0.0240903 0)
(1.22432 0.0264211 0)
(1.22167 0.026774 0)
(1.21901 0.0270786 0)
(1.21633 0.0273371 0)
(1.21364 0.0275516 0)
(1.21095 0.0277243 0)
(1.20825 0.0278574 0)
(1.20554 0.0279532 0)
(1.20284 0.0280139 0)
(1.20013 0.0280418 0)
(1.19743 0.0280392 0)
(1.19472 0.0280083 0)
(1.19203 0.0279515 0)
(1.18933 0.0278708 0)
(1.18665 0.0277686 0)
(1.18397 0.027647 0)
(1.1813 0.0275082 0)
(1.17864 0.0273542 0)
(1.17599 0.0271871 0)
(1.17336 0.027009 0)
(1.17073 0.0268218 0)
(1.16812 0.0266275 0)
(1.16552 0.0264278 0)
(1.16294 0.0262247 0)
(1.16036 0.02602 0)
(1.15781 0.0258152 0)
(1.15527 0.0256123 0)
(1.15274 0.0254126 0)
(1.15023 0.0252179 0)
(1.14773 0.0250296 0)
(1.14525 0.0248493 0)
(1.14278 0.0246784 0)
(1.14033 0.0245183 0)
(1.13789 0.0243702 0)
(1.13546 0.0242356 0)
(1.13305 0.0241157 0)
(1.13065 0.0240116 0)
(1.12826 0.0239246 0)
(1.12589 0.0238557 0)
(1.12352 0.0238059 0)
(1.12117 0.0237763 0)
(1.11882 0.0237676 0)
(1.11648 0.023781 0)
(1.11415 0.0238165 0)
(1.11182 0.0238758 0)
(1.10949 0.0239582 0)
(1.10719 0.0240649 0)
(1.10483 0.0241967 0)
(1.10262 0.0243505 0)
(1.10005 0.024531 0)
(1.09838 0.0247477 0)
(1.09456 0.024859 0)
(1.21879 0.0282459 0)
(1.21602 0.0285819 0)
(1.21325 0.0288683 0)
(1.21046 0.0291072 0)
(1.20767 0.029301 0)
(1.20488 0.029452 0)
(1.20209 0.0295626 0)
(1.1993 0.029635 0)
(1.19651 0.0296717 0)
(1.19373 0.0296749 0)
(1.19095 0.0296472 0)
(1.18817 0.0295907 0)
(1.18541 0.0295079 0)
(1.18266 0.0294011 0)
(1.17991 0.0292725 0)
(1.17718 0.0291244 0)
(1.17446 0.028959 0)
(1.17176 0.0287784 0)
(1.16907 0.0285848 0)
(1.16639 0.0283803 0)
(1.16373 0.0281667 0)
(1.16109 0.0279463 0)
(1.15846 0.0277207 0)
(1.15585 0.027492 0)
(1.15326 0.0272619 0)
(1.15068 0.0270322 0)
(1.14813 0.0268046 0)
(1.14559 0.0265808 0)
(1.14307 0.0263623 0)
(1.14057 0.0261507 0)
(1.13808 0.0259475 0)
(1.13561 0.0257542 0)
(1.13317 0.0255723 0)
(1.13073 0.0254029 0)
(1.12832 0.0252476 0)
(1.12592 0.0251076 0)
(1.12354 0.024984 0)
(1.12117 0.024878 0)
(1.11882 0.0247909 0)
(1.11648 0.0247235 0)
(1.11416 0.0246769 0)
(1.11185 0.0246519 0)
(1.10955 0.0246497 0)
(1.10726 0.02467 0)
(1.10498 0.0247151 0)
(1.1027 0.0247831 0)
(1.10045 0.0248773 0)
(1.09815 0.0249945 0)
(1.096 0.0251389 0)
(1.0935 0.0252999 0)
(1.09188 0.0255175 0)
(1.0882 0.0255823 0)
(1.21269 0.030104 0)
(1.20982 0.0304192 0)
(1.20694 0.0306836 0)
(1.20405 0.0308994 0)
(1.20117 0.0310692 0)
(1.19829 0.0311953 0)
(1.19542 0.0312802 0)
(1.19255 0.0313263 0)
(1.18968 0.0313361 0)
(1.18683 0.0313121 0)
(1.18398 0.0312567 0)
(1.18115 0.0311723 0)
(1.17833 0.0310614 0)
(1.17553 0.0309263 0)
(1.17273 0.0307693 0)
(1.16996 0.0305928 0)
(1.1672 0.0303991 0)
(1.16446 0.0301902 0)
(1.16173 0.0299685 0)
(1.15903 0.029736 0)
(1.15634 0.0294948 0)
(1.15367 0.0292469 0)
(1.15103 0.0289942 0)
(1.1484 0.0287387 0)
(1.1458 0.0284822 0)
(1.14322 0.0282265 0)
(1.14065 0.0279733 0)
(1.13811 0.0277242 0)
(1.13559 0.027481 0)
(1.13309 0.0272452 0)
(1.13062 0.0270184 0)
(1.12816 0.026802 0)
(1.12573 0.0265974 0)
(1.12331 0.026406 0)
(1.12092 0.0262292 0)
(1.11854 0.0260683 0)
(1.11619 0.0259245 0)
(1.11385 0.0257989 0)
(1.11153 0.0256927 0)
(1.10923 0.0256069 0)
(1.10694 0.0255427 0)
(1.10467 0.0255005 0)
(1.10242 0.025482 0)
(1.10018 0.0254863 0)
(1.09795 0.0255165 0)
(1.09573 0.0255692 0)
(1.09354 0.0256502 0)
(1.09131 0.0257516 0)
(1.08923 0.0258863 0)
(1.08681 0.026026 0)
(1.08525 0.0262451 0)
(1.08172 0.0262598 0)
(1.20604 0.0319881 0)
(1.20306 0.0322787 0)
(1.20008 0.0325174 0)
(1.19711 0.0327067 0)
(1.19414 0.0328491 0)
(1.19119 0.0329472 0)
(1.18824 0.0330035 0)
(1.18529 0.0330205 0)
(1.18237 0.0330009 0)
(1.17945 0.0329471 0)
(1.17655 0.0328617 0)
(1.17367 0.0327471 0)
(1.1708 0.032606 0)
(1.16795 0.0324406 0)
(1.16512 0.0322534 0)
(1.16231 0.0320468 0)
(1.15952 0.0318231 0)
(1.15675 0.0315845 0)
(1.154 0.0313333 0)
(1.15128 0.0310715 0)
(1.14858 0.0308014 0)
(1.1459 0.0305249 0)
(1.14324 0.030244 0)
(1.14061 0.0299607 0)
(1.13801 0.0296768 0)
(1.13542 0.0293941 0)
(1.13287 0.0291144 0)
(1.13033 0.0288394 0)
(1.12782 0.0285708 0)
(1.12534 0.0283101 0)
(1.12288 0.0280588 0)
(1.12044 0.0278185 0)
(1.11803 0.0275907 0)
(1.11564 0.0273766 0)
(1.11327 0.0271778 0)
(1.11093 0.0269954 0)
(1.10861 0.0268307 0)
(1.10631 0.0266849 0)
(1.10403 0.0265591 0)
(1.10177 0.0264543 0)
(1.09953 0.0263719 0)
(1.09731 0.0263119 0)
(1.09511 0.0262764 0)
(1.09293 0.026264 0)
(1.09077 0.0262786 0)
(1.08861 0.0263154 0)
(1.08649 0.0263827 0)
(1.08433 0.0264671 0)
(1.08232 0.026592 0)
(1.08 0.0267085 0)
(1.07849 0.0269298 0)
(1.07512 0.0268913 0)
(1.19882 0.0338905 0)
(1.19575 0.0341528 0)
(1.19269 0.0343624 0)
(1.18964 0.0345218 0)
(1.1866 0.0346337 0)
(1.18357 0.0347008 0)
(1.18055 0.0347257 0)
(1.17756 0.034711 0)
(1.17457 0.0346594 0)
(1.17161 0.0345735 0)
(1.16866 0.0344558 0)
(1.16574 0.0343091 0)
(1.16283 0.0341358 0)
(1.15995 0.0339384 0)
(1.15709 0.0337194 0)
(1.15426 0.0334811 0)
(1.15145 0.033226 0)
(1.14866 0.0329563 0)
(1.1459 0.0326743 0)
(1.14317 0.0323822 0)
(1.14046 0.032082 0)
(1.13778 0.0317759 0)
(1.13513 0.0314659 0)
(1.1325 0.0311539 0)