/*--------------------------------*- C++ -*----------------------------------*\
  =========                 |
  \\      /  F ield         | OpenFOAM: The Open Source CFD Toolbox
   \\    /   O peration     | Website:  https://openfoam.org
    \\  /    A nd           | Version:  7
     \\/     M anipulation  |
\*---------------------------------------------------------------------------*/
FoamFile
{
    version     2.0;
    format      ascii;
    class       volScalarField;
    location    "10";
    object      p;
}
// * * * * * * * * * * * * * * * * * * * * * * * * * * * * * * * * * * * * * //

dimensions      [0 2 -2 0 0 0 0];

internalField   nonuniform List<scalar> 
2625
(
-0.412283
0.983411
0.80814
0.983411
0.80814
0.795493
0.710126
0.677474
0.982288
0.807196
0.794602
0.709369
0.676805
0.980044
0.805309
0.792822
0.707857
0.675467
0.976683
0.802482
0.790155
0.705592
0.673463
0.972209
0.79872
0.786606
0.702577
0.670795
0.966631
0.79403
0.78218
0.698817
0.667467
0.959957
0.788418
0.776884
0.694316
0.663483
0.606934
0.952197
0.781895
0.770725
0.689083
0.658848
0.603009
0.943365
0.774471
0.763715
0.683123
0.65357
0.598538
0.933475
0.766159
0.755863
0.676446
0.647654
0.593525
0.922542
0.756971
0.747181
0.669062
0.641108
0.587978
0.910584
0.746924
0.737684
0.660981
0.633942
0.581902
0.89762
0.736033
0.727386
0.652215
0.626165
0.575306
0.88367
0.724317
0.716302
0.642777
0.617787
0.568197
0.868758
0.711794
0.70445
0.632681
0.60882
0.560585
0.852906
0.698486
0.691847
0.62194
0.599275
0.552478
0.836141
0.684413
0.678514
0.610571
0.589165
0.543888
0.818487
0.669599
0.664471
0.59859
0.578503
0.534823
0.799974
0.654068
0.649739
0.586014
0.567304
0.525296
0.78063
0.637844
0.634341
0.572861
0.555582
0.515318
0.760485
0.620954
0.618299
0.55915
0.543353
0.504902
0.739572
0.603425
0.60164
0.544902
0.530633
0.494059
0.717922
0.585285
0.584387
0.530135
0.517439
0.482804
0.695569
0.566562
0.566566
0.514872
0.503788
0.471149
0.450395
0.672548
0.547287
0.548206
0.499134
0.489697
0.45911
0.439895
0.648894
0.527489
0.529333
0.482944
0.475186
0.4467
0.429065
0.624644
0.507201
0.509975
0.466323
0.460274
0.433935
0.417915
0.599833
0.486452
0.490161
0.449297
0.444979
0.420831
0.406459
0.5745
0.465276
0.469922
0.431888
0.429322
0.407402
0.394709
0.548683
0.443706
0.449286
0.414121
0.413323
0.393665
0.382678
0.52242
0.421773
0.428284
0.396022
0.397002
0.379637
0.37038
0.49575
0.399512
0.406947
0.377614
0.380382
0.365333
0.357828
0.468713
0.376957
0.385305
0.358925
0.363482
0.350773
0.345037
0.331632
0.441349
0.35414
0.363391
0.339978
0.346326
0.335971
0.332019
0.320375
0.413697
0.331096
0.341236
0.320802
0.328934
0.320947
0.31879
0.308924
0.385797
0.307859
0.318871
0.301422
0.311329
0.305717
0.305364
0.297291
0.357689
0.284462
0.296328
0.281863
0.293533
0.2903
0.291755
0.285487
0.329413
0.26094
0.273638
0.262153
0.275569
0.274714
0.277978
0.273524
0.301006
0.237325
0.250835
0.242319
0.25746
0.258976
0.264048
0.261414
0.258239
0.272518
0.213654
0.22795
0.222386
0.239227
0.243106
0.249981
0.24917
0.247469
0.244001
0.189969
0.205019
0.202384
0.220896
0.227122
0.23579
0.236803
0.23658
0.215451
0.16628
0.182063
0.182334
0.202485
0.211041
0.221491
0.224326
0.225582
0.18692
0.142627
0.159115
0.162264
0.18402
0.194883
0.2071
0.211751
0.214486
0.158455
0.119045
0.136209
0.1422
0.165522
0.178665
0.192631
0.199089
0.2033
0.203529
0.130091
0.0955652
0.113375
0.122169
0.147015
0.162406
0.1781
0.186354
0.192036
0.193606
0.101866
0.0722182
0.0906416
0.102195
0.12852
0.146125
0.163522
0.173558
0.180703
0.183612
0.0738139
0.0490333
0.068038
0.082303
0.110059
0.129839
0.148912
0.160713
0.169311
0.173555
0.0459706
0.0260396
0.0455928
0.0625185
0.0916553
0.113568
0.134285
0.147831
0.157871
0.163443
0.166653
0.0183702
0.00326502
0.0233339
0.0428652
0.0733296
0.0973279
0.119656
0.134925
0.146393
0.153284
0.157603
-0.00895338
-0.0192635
0.0012882
0.023367
0.0551034
0.0811377
0.10504
0.122006
0.134887
0.143088
0.148509
-0.0359679
-0.0415198
-0.0205179
0.00404676
0.0369977
0.0650148
0.0904523
0.109087
0.123362
0.132861
0.139378
0.143353
-0.0626469
-0.0634748
-0.0420588
-0.0150728
0.0190332
0.0489765
0.075907
0.0961803
0.111829
0.122613
0.130217
0.13515
-0.0889581
-0.085106
-0.0633099
-0.0339699
0.00123003
0.0330401
0.0614189
0.083297
0.100298
0.112352
0.121032
0.126916
-0.114869
-0.106393
-0.0842476
-0.0526232
-0.016392
0.0172224
0.0470024
0.0704493
0.088778
0.102085
0.111831
0.118658
0.12352
-0.140352
-0.127313
-0.104849
-0.071012
-0.0338136
0.00154002
0.0326716
0.057649
0.0772793
0.0918215
0.102621
0.110381
0.116038
-0.165383
-0.147843
-0.125094
-0.0891166
-0.0510161
-0.0139908
0.0184407
0.0449077
0.0658115
0.0815685
0.0934073
0.102092
0.108536
0.113356
-0.189937
-0.167965
-0.144957
-0.106919
-0.0679813
-0.0293542
0.00432336
0.0322368
0.0543841
0.0713343
0.0841979
0.0937953
0.101019
0.106514
-0.21399
-0.187658
-0.164423
-0.124401
-0.0846917
-0.0445347
-0.00966684
0.0196476
0.0430066
0.0611268
0.074999
0.0854973
0.0934909
0.0996545
-0.237519
-0.206905
-0.183473
-0.141544
-0.10113
-0.059517
-0.0235166
0.00715141
0.0316884
0.0509538
0.0658173
0.0772034
0.0859575
0.0927807
0.0981134
-0.260502
-0.225692
-0.202088
-0.158332
-0.117281
-0.0742865
-0.0372129
-0.00524092
0.0204388
0.040823
0.0566593
0.0689194
0.0784233
0.0858973
0.0917809
0.0968014
-0.282921
-0.244001
-0.220252
-0.17475
-0.133127
-0.0888296
-0.0507431
-0.0175186
0.00926673
0.030742
0.0475315
0.0606507
0.0708932
0.0790087
0.0854353
0.090916
-0.304757
-0.26182
-0.237951
-0.190784
-0.148655
-0.103132
-0.0640947
-0.0296709
-0.00181868
0.0207185
0.0384403
0.0524029
0.0633721
0.072119
0.0790805
0.0850126
0.089573
-0.325993
-0.279136
-0.255171
-0.20642
-0.163851
-0.11718
-0.0772557
-0.0416876
-0.0128086
0.0107598
0.029392
0.0441814
0.0558648
0.0652326
0.0727203
0.0790946
0.0840242
-0.346613
-0.295937
-0.2719
-0.221645
-0.1787
-0.130962
-0.0902144
-0.0535585
-0.0236945
0.000873242
0.020393
0.0359918
0.0483761
0.0583537
0.0663587
0.0731657
0.0784572
0.0841475
-0.366604
-0.312215
-0.288125
-0.236448
-0.193191
-0.144466
-0.102959
-0.0652737
-0.0344676
-0.00893389
0.0114494
0.0278393
0.0409107
0.0514868
0.0599995
0.0672296
0.0728755
0.0788079
0.0817981
-0.385953
-0.32796
-0.303836
-0.25082
-0.207312
-0.157679
-0.11548
-0.0768235
-0.0451196
-0.0186545
0.00256731
0.0197293
0.0334734
0.0446361
0.0536469
0.0612903
0.0672828
0.0734444
0.0767154
0.0846946
-0.404649
-0.343165
-0.319026
-0.264749
-0.221052
-0.170592
-0.127765
-0.0881986
-0.0556424
-0.0282816
-0.00624721
0.011667
0.0260688
0.0378059
0.0473048
0.0553514
0.0616826
0.068061
0.0716049
0.0794039
-0.422682
-0.357824
-0.333686
-0.278229
-0.234402
-0.183193
-0.139806
-0.0993897
-0.066028
-0.0378082
-0.0149882
0.00365779
0.0187018
0.0310005
0.0409772
0.049417
0.0560787
0.0626621
0.0664699
0.0740729
-0.440045
-0.371931
-0.347811
-0.291253
-0.247351
-0.195473
-0.151591
-0.110388
-0.0762685
-0.0472278
-0.0236498
-0.00429344
0.0113768
0.0242241
0.0346682
0.0434912
0.0504751
0.0572521
0.0613141
0.0687087
-0.456729
-0.385484
-0.361394
-0.303813
-0.259893
-0.207424
-0.163112
-0.121185
-0.0863563
-0.0565336
-0.032226
-0.0121816
0.00409847
0.0174812
0.0283819
0.0375779
0.0448757
0.0518357
0.0561415
0.0633186
-0.472731
-0.39848
-0.374433
-0.315905
-0.272019
-0.219037
-0.174361
-0.131773
-0.096284
-0.0657192
-0.0407122
-0.020001
-0.00312861
0.0107759
0.0221223
0.0316814
0.0392846
0.0464175
0.0509564
0.0579103
-0.488046
-0.410917
-0.386924
-0.327525
-0.283724
-0.230304
-0.185329
-0.142143
-0.106044
-0.0747781
-0.0491017
-0.0277475
-0.0102999
0.00411241
0.0158937
0.0258057
0.0337062
0.0410028
0.0457632
-0.502671
-0.422796
-0.398866
-0.338671
-0.295002
-0.241219
-0.196008
-0.152288
-0.11563
-0.0837043
-0.0573893
-0.0354162
-0.017411
-0.00250491
0.00970002
0.0199552
0.0281446
0.0355964
0.0405671
-0.516606
-0.434117
-0.41026
-0.34934
-0.30585
-0.251776
-0.206392
-0.162201
-0.125035
-0.0924915
-0.0655698
-0.043002
-0.0244575
-0.00907194
0.00354546
0.0141341
0.0226042
0.0302036
0.035373
-0.529849
-0.444883
-0.421105
-0.359532
-0.316263
-0.261969
-0.216474
-0.171875
-0.134252
-0.101134
-0.0736378
-0.0505003
-0.0314351
-0.0155847
-0.00256582
0.00834664
0.0170894
0.0248297
0.0301864
-0.542404
-0.455096
-0.431404
-0.369248
-0.32624
-0.271795
-0.226247
-0.181304
-0.143276
-0.109626
-0.0815884
-0.0579064
-0.0383395
-0.0220388
-0.0086299
0.00259705
0.0116049
0.0194801
0.025013
-0.554271
-0.464762
-0.44116
-0.378488
-0.335778
-0.281249
-0.235707
-0.190482
-0.152099
-0.117962
-0.0894163
-0.0652158
-0.0451664
-0.0284303
-0.0146427
-0.00311063
0.00615527
0.0141602
0.0198585
-0.565456
-0.473884
-0.450378
-0.387255
-0.344878
-0.290328
-0.244849
-0.199402
-0.160717
-0.126137
-0.0971167
-0.0724241
-0.0519117
-0.0347552
-0.0206001
-0.00877173
0.000744834
0.00887426
0.01473
-0.575962
-0.48247
-0.459062
-0.395553
-0.353541
-0.29903
-0.253668
-0.20806
-0.169123
-0.134145
-0.104685
-0.0795268
-0.0585714
-0.0410094
-0.0264982
-0.0143821
-0.00462192
0.00362873
0.00963401
-0.585796
-0.490524
-0.467217
-0.403385
-0.361766
-0.307354
-0.262161
-0.216451
-0.177314
-0.141981
-0.112116
-0.0865196
-0.0651413
-0.0471892
-0.0323331
-0.0199375
-0.00994037
-0.00157055
0.00457482
-0.594959
-0.498051
-0.474848
-0.410753
-0.369554
-0.315297
-0.270324
-0.22457
-0.185282
-0.14964
-0.119406
-0.0933985
-0.0716177
-0.0532907
-0.038101
-0.025434
-0.0152061
-0.00671866
-0.000440847
-0.603471
-0.505068
-0.48197
-0.41767
-0.376913
-0.322864
-0.278157
-0.232415
-0.193025
-0.157118
-0.126549
-0.100159
-0.0779964
-0.0593099
-0.0437977
-0.0308673
-0.0204144
-0.0118104
-0.00540593
-0.611337
-0.511583
-0.488589
-0.424142
-0.383846
-0.330054
-0.285658
-0.239981
-0.200538
-0.164411
-0.133542
-0.106797
-0.0842737
-0.0652432
-0.0494197
-0.0362333
-0.0255609
-0.0168408
-0.010314
-0.618565
-0.517602
-0.494714
-0.430174
-0.390358
-0.336869
-0.292825
-0.247266
-0.207818
-0.171513
-0.140381
-0.113309
-0.090446
-0.071087
-0.0549633
-0.0415283
-0.0306414
-0.0218049
-0.0151588
-0.625167
-0.523137
-0.500355
-0.435775
-0.396453
-0.343311
-0.299659
-0.254268
-0.21486
-0.178422
-0.147061
-0.119691
-0.0965096
-0.0768378
-0.060425
-0.0467485
-0.0356516
-0.026698
-0.0199342
-0.631154
-0.528199
-0.505523
-0.440954
-0.402139
-0.349384
-0.306159
-0.260984
-0.221661
-0.185133
-0.15358
-0.12594
-0.102461
-0.0824922
-0.0658013
-0.05189
-0.0405875
-0.0315154
-0.0246342
-0.636539
-0.532799
-0.510229
-0.445722
-0.407422
-0.355093
-0.312327
-0.267414
-0.228219
-0.191643
-0.159932
-0.132051
-0.108297
-0.0880467
-0.0710887
-0.0569494
-0.0454451
-0.0362528
-0.029253
-0.641335
-0.53695
-0.514485
-0.450088
-0.412311
-0.360441
-0.318166
-0.273557
-0.234532
-0.197948
-0.166114
-0.138022
-0.114014
-0.0934981
-0.076284
-0.061923
-0.0502204
-0.040906
-0.0337851
-0.645555
-0.540664
-0.518304
-0.454063
-0.416815
-0.365434
-0.323676
-0.279412
-0.240596
-0.204046
-0.172124
-0.143848
-0.119608
-0.0988431
-0.081384
-0.0668077
-0.0549099
-0.045471
-0.0382253
-0.649214
-0.543953
-0.521699
-0.457659
-0.420943
-0.37008
-0.328862
-0.284981
-0.246412
-0.209934
-0.177958
-0.149527
-0.125078
-0.104079
-0.0863855
-0.0716
-0.05951
-0.0499441
-0.0425687
-0.0380517
-0.652327
-0.546831
-0.524683
-0.460888
-0.424705
-0.374384
-0.333728
-0.290263
-0.251977
-0.215609
-0.183612
-0.155055
-0.130418
-0.109202
-0.0912856
-0.076297
-0.0640175
-0.0543219
-0.0468108
-0.0422754
-0.654909
-0.549312
-0.52727
-0.463762
-0.428111
-0.378355
-0.338277
-0.295261
-0.257291
-0.221069
-0.189085
-0.160429
-0.135627
-0.11421
-0.0960815
-0.0808957
-0.0684292
-0.0586011
-0.0509476
-0.0463825
-0.656976
-0.551408
-0.529474
-0.466294
-0.431172
-0.382
-0.342516
-0.299977
-0.262354
-0.226313
-0.194373
-0.165647
-0.140702
-0.119099
-0.10077
-0.0853934
-0.0727422
-0.0627788
-0.0549752
-0.0503706
-0.658543
-0.553134
-0.531308
-0.468495
-0.4339
-0.385328
-0.346449
-0.304414
-0.267166
-0.231339
-0.199474
-0.170705
-0.145639
-0.123868
-0.10535
-0.0897872
-0.0769538
-0.0668522
-0.0588905
-0.0542376
-0.659628
-0.554504
-0.532788
-0.470381
-0.436307
-0.388349
-0.350083
-0.308574
-0.271727
-0.236146
-0.204386
-0.175602
-0.150437
-0.128512
-0.109817
-0.0940747
-0.0810615
-0.0708188
-0.0626906
-0.0579816
-0.660247
-0.55553
-0.533927
-0.471963
-0.438403
-0.391072
-0.353425
-0.312462
-0.27604
-0.240733
-0.209108
-0.180334
-0.155091
-0.133031
-0.114169
-0.0982536
-0.085063
-0.0746762
-0.0663731
-0.0616012
-0.660416
-0.556229
-0.53474
-0.473255
-0.440203
-0.393507
-0.356483
-0.316082
-0.280105
-0.2451
-0.213636
-0.184899
-0.159601
-0.137421
-0.118405
-0.102321
-0.0889563
-0.0784225
-0.0699361
-0.0650953
-0.660153
-0.556612
-0.535241
-0.47427
-0.441718
-0.395664
-0.359263
-0.319438
-0.283925
-0.249246
-0.217971
-0.189295
-0.163964
-0.14168
-0.122521
-0.106276
-0.0927395
-0.0820558
-0.073378
-0.0684628
-0.659475
-0.556695
-0.535445
-0.475022
-0.44296
-0.397555
-0.361774
-0.322537
-0.287503
-0.253174
-0.22211
-0.19352
-0.168176
-0.145805
-0.126517
-0.110116
-0.096411
-0.0855742
-0.076698
-0.0717033
-0.658399
-0.55649
-0.535366
-0.475523
-0.443943
-0.399189
-0.364026
-0.325384
-0.290842
-0.256882
-0.226054
-0.197573
-0.172237
-0.149795
-0.130389
-0.113838
-0.0999695
-0.0889763
-0.0798953
-0.0748161
-0.656941
-0.556012
-0.535018
-0.475788
-0.44468
-0.400579
-0.366027
-0.327985
-0.293945
-0.260373
-0.229801
-0.201452
-0.176145
-0.153648
-0.134137
-0.117442
-0.103414
-0.0922606
-0.0829698
-0.0778007
-0.655119
-0.555275
-0.534415
-0.475829
-0.445182
-0.401735
-0.367786
-0.330347
-0.296816
-0.263648
-0.233352
-0.205155
-0.179896
-0.15736
-0.137758
-0.120925
-0.106743
-0.0954257
-0.0859218
-0.0806568
-0.65295
-0.554291
-0.533571
-0.475659
-0.445464
-0.402669
-0.369313
-0.332478
-0.299461
-0.26671
-0.236707
-0.208682
-0.183491
-0.160931
-0.14125
-0.124286
-0.109956
-0.0984703
-0.0887521
-0.0833837
-0.650451
-0.553073
-0.5325
-0.47529
-0.445537
-0.403393
-0.370618
-0.334385
-0.301884
-0.26956
-0.239866
-0.212032
-0.186927
-0.164359
-0.144613
-0.127522
-0.113052
-0.101393
-0.091462
-0.0859808
-0.647638
-0.551636
-0.531214
-0.474736
-0.445414
-0.403917
-0.371712
-0.336076
-0.30409
-0.272203
-0.242831
-0.215204
-0.190203
-0.167642
-0.147845
-0.130634
-0.116031
-0.104193
-0.0940534
-0.0884468
-0.644529
-0.54999
-0.529728
-0.474007
-0.445107
-0.404254
-0.372603
-0.337559
-0.306087
-0.274641
-0.245603
-0.218198
-0.193318
-0.170778
-0.150944
-0.133619
-0.118894
-0.106869
-0.0965285
-0.0907804
-0.641139
-0.54815
-0.528053
-0.473117
-0.444628
-0.404413
-0.373304
-0.338843
-0.307879
-0.276879
-0.248184
-0.221015
-0.196272
-0.173766
-0.153909
-0.136475
-0.121639
-0.109419
-0.0988906
-0.0929793
-0.637485
-0.546126
-0.526202
-0.472075
-0.443989
-0.404408
-0.373823
-0.339936
-0.309474
-0.27892
-0.250576
-0.223654
-0.199063
-0.176606
-0.15674
-0.139203
-0.124268
-0.111842
-0.101143
-0.0950404
-0.633583
-0.543932
-0.524187
-0.470894
-0.443202
-0.404248
-0.374172
-0.340847
-0.310878
-0.280771
-0.252781
-0.226118
-0.201692
-0.179295
-0.159435
-0.141799
-0.12678
-0.114136
-0.103291
-0.0969593
-0.629448
-0.541578
-0.52202
-0.469584
-0.442277
-0.403944
-0.374359
-0.341586
-0.3121
-0.282435
-0.254804
-0.228407
-0.204158
-0.181834
-0.161994
-0.144264
-0.129177
-0.116299
-0.10534
-0.0987303
-0.625097
-0.539076
-0.519712
-0.468155
-0.441224
-0.403506
-0.374397
-0.34216
-0.313145
-0.283918
-0.256646
-0.230522
-0.206462
-0.184221
-0.164415
-0.146596
-0.131459
-0.11833
-0.107296
-0.100345
-0.620543
-0.536437
-0.517274
-0.466618
-0.440055
-0.402946
-0.374294
-0.34258
-0.314023
-0.285227
-0.258313
-0.232467
-0.208604
-0.186456
-0.166699
-0.148795
-0.133626
-0.120227
-0.109166
-0.101795
-0.615803
-0.533672
-0.514717
-0.464981
-0.43878
-0.402271
-0.37406
-0.342854
-0.314741
-0.286367
-0.259809
-0.234242
-0.210587
-0.18854
-0.168846
-0.150859
-0.135681
-0.121986
-0.110959
-0.103065
-0.610891
-0.53079
-0.512052
-0.463254
-0.437407
-0.401493
-0.373705
-0.342991
-0.315306
-0.287345
-0.261138
-0.235853
-0.21241
-0.190473
-0.170854
-0.152788
-0.137624
-0.123606
-0.112684
-0.104138
-0.605822
-0.527804
-0.509288
-0.461446
-0.435946
-0.400619
-0.373239
-0.343
-0.315728
-0.288168
-0.262305
-0.2373
-0.214076
-0.192255
-0.172725
-0.154581
-0.139456
-0.125085
-0.114352
-0.104993
-0.600609
-0.524721
-0.506435
-0.459565
-0.434406
-0.39966
-0.372669
-0.342891
-0.316014
-0.288842
-0.263316
-0.23859
-0.215587
-0.193888
-0.174459
-0.156239
-0.141179
-0.126419
-0.115974
-0.105601
-0.595267
-0.521553
-0.503502
-0.457618
-0.432794
-0.398622
-0.372005
-0.342671
-0.316173
-0.289375
-0.264177
-0.239725
-0.216946
-0.195372
-0.176056
-0.157761
-0.142793
-0.127607
-0.117561
-0.58981
-0.518308
-0.500499
-0.455613
-0.43112
-0.397514
-0.371256
-0.342349
-0.316212
-0.289774
-0.264894
-0.24071
-0.218155
-0.19671
-0.177517
-0.159149
-0.144301
-0.128647
-0.119126
-0.584251
-0.514995
-0.497433
-0.453558
-0.429389
-0.396343
-0.370429
-0.341933
-0.316139
-0.290047
-0.265473
-0.241551
-0.219219
-0.197903
-0.178844
-0.160403
-0.145701
-0.129539
-0.120681
-0.578601
-0.511623
-0.494314
-0.451459
-0.42761
-0.395116
-0.369531
-0.341431
-0.315963
-0.290201
-0.26592
-0.242252
-0.220141
-0.198956
-0.180038
-0.161525
-0.146996
-0.130285
-0.122233
-0.572874
-0.508199
-0.491146
-0.449321
-0.425787
-0.39384
-0.36857
-0.34085
-0.315691
-0.290244
-0.266243
-0.24282
-0.220926
-0.199871
-0.181101
-0.162516
-0.148184
-0.130894
-0.567086
-0.504735
-0.487944
-0.447153
-0.42393
-0.392521
-0.367553
-0.340198
-0.315332
-0.290182
-0.266448
-0.24326
-0.221578
-0.200651
-0.182034
-0.16338
-0.149266
-0.131381
-0.561249
-0.50124
-0.484712
-0.444962
-0.422044
-0.391167
-0.366488
-0.339482
-0.314891
-0.290024
-0.266542
-0.243579
-0.222103
-0.201301
-0.182842
-0.16412
-0.150241
-0.131763
-0.555375
-0.497719
-0.481458
-0.44275
-0.420133
-0.389781
-0.365379
-0.33871
-0.314378
-0.289777
-0.266534
-0.243783
-0.222505
-0.201825
-0.183526
-0.164739
-0.151109
-0.13205
-0.549475
-0.494181
-0.478188
-0.440525
-0.418205
-0.38837
-0.364233
-0.337886
-0.313798
-0.289448
-0.266428
-0.243879
-0.222791
-0.202229
-0.18409
-0.16524
-0.151868
-0.543562
-0.490634
-0.47491
-0.438291
-0.416263
-0.386937
-0.363055
-0.337017
-0.313158
-0.289044
-0.266234
-0.243874
-0.222967
-0.202517
-0.184538
-0.16563
-0.15252
-0.537648
-0.487084
-0.471632
-0.436053
-0.414312
-0.385489
-0.361851
-0.33611
-0.312465
-0.288572
-0.265958
-0.243774
-0.223039
-0.202696
-0.184875
-0.165911
-0.153065
-0.531745
-0.483541
-0.468359
-0.433816
-0.412358
-0.384029
-0.360625
-0.335169
-0.311725
-0.288039
-0.265606
-0.243588
-0.223014
-0.202772
-0.185104
-0.166088
-0.153506
-0.525864
-0.480011
-0.465098
-0.431585
-0.410405
-0.382562
-0.359383
-0.334199
-0.310943
-0.287452
-0.265187
-0.243321
-0.222899
-0.202751
-0.18523
-0.166169
-0.153845
-0.520018
-0.476501
-0.461856
-0.429365
-0.408458
-0.381092
-0.358128
-0.333206
-0.310127
-0.286816
-0.264707
-0.242982
-0.2227
-0.202641
-0.185261
-0.166157
-0.154084
-0.514218
-0.473018
-0.458639
-0.42716
-0.406519
-0.379622
-0.356866
-0.332195
-0.30928
-0.286139
-0.264172
-0.242577
-0.222424
-0.202447
-0.1852
-0.16606
-0.508475
-0.46957
-0.455454
-0.424974
-0.404595
-0.378156
-0.355599
-0.33117
-0.308409
-0.285425
-0.263589
-0.242114
-0.222079
-0.202178
-0.185055
-0.165883
-0.502801
-0.466164
-0.452306
-0.422812
-0.402689
-0.376699
-0.354333
-0.330134
-0.307518
-0.284681
-0.262965
-0.241598
-0.221672
-0.20184
-0.184831
-0.165634
-0.497207
-0.462805
-0.449203
-0.420678
-0.400804
-0.375253
-0.35307
-0.329094
-0.306613
-0.283911
-0.262305
-0.241038
-0.221209
-0.201441
-0.184536
-0.16532
-0.491704
-0.459502
-0.44615
-0.418576
-0.398945
-0.373822
-0.351815
-0.328051
-0.305697
-0.283123
-0.261616
-0.240439
-0.220698
-0.200988
-0.184176
-0.164948
-0.486304
-0.456261
-0.443153
-0.416511
-0.397116
-0.372409
-0.350571
-0.327011
-0.304775
-0.282319
-0.260904
-0.239808
-0.220145
-0.200488
-0.183758
-0.164525
-0.481017
-0.453088
-0.440219
-0.414486
-0.39532
-0.371018
-0.349342
-0.325977
-0.303851
-0.281506
-0.260173
-0.239151
-0.219558
-0.199949
-0.18329
-0.164059
-0.475854
-0.44999
-0.437353
-0.412506
-0.393561
-0.369652
-0.34813
-0.324953
-0.30293
-0.280688
-0.25943
-0.238475
-0.218943
-0.199378
-0.182778
-0.470826
-0.446974
-0.434561
-0.410576
-0.391844
-0.368314
-0.34694
-0.323941
-0.302016
-0.279869
-0.258679
-0.237784
-0.218305
-0.198781
-0.182229
-0.465943
-0.444044
-0.431848
-0.408698
-0.390172
-0.367008
-0.345775
-0.322947
-0.301111
-0.279054
-0.257925
-0.237086
-0.217653
-0.198165
-0.18165
-0.461216
-0.441209
-0.429222
-0.406877
-0.388548
-0.365737
-0.344638
-0.321972
-0.300221
-0.278247
-0.257174
-0.236384
-0.21699
-0.197537
-0.181049
-0.456654
-0.438473
-0.426686
-0.405117
-0.386977
-0.364504
-0.343532
-0.321021
-0.299349
-0.277452
-0.25643
-0.235685
-0.216324
-0.196903
-0.180432
-0.452268
-0.435842
-0.424247
-0.403422
-0.385462
-0.363312
-0.342462
-0.320096
-0.298499
-0.276674
-0.255697
-0.234992
-0.215659
-0.196269
-0.179806
-0.448066
-0.433323
-0.42191
-0.401796
-0.384007
-0.362164
-0.341428
-0.319201
-0.297673
-0.275915
-0.254979
-0.234311
-0.215002
-0.195639
-0.179177
-0.444063
-0.430918
-0.41968
-0.400243
-0.382615
-0.361065
-0.340436
-0.31834
-0.296875
-0.27518
-0.254281
-0.233647
-0.214356
-0.195021
-0.17855
-0.440268
-0.42863
-0.417562
-0.398766
-0.381291
-0.360016
-0.339488
-0.317514
-0.29611
-0.274472
-0.253606
-0.233002
-0.213727
-0.194417
-0.177933
-0.436665
-0.426486
-0.415562
-0.397369
-0.380037
-0.359021
-0.338588
-0.316728
-0.295378
-0.273794
-0.252958
-0.232382
-0.213119
-0.193834
-0.177331
-0.433288
-0.424467
-0.413683
-0.396056
-0.378856
-0.358083
-0.337737
-0.315984
-0.294685
-0.27315
-0.252341
-0.23179
-0.212536
-0.193275
-0.176749
-0.430143
-0.422583
-0.41193
-0.39483
-0.377753
-0.357205
-0.336939
-0.315285
-0.294033
-0.272542
-0.251758
-0.23123
-0.211983
-0.192744
-0.176192
-0.427233
-0.420839
-0.410307
-0.393693
-0.37673
-0.356389
-0.336197
-0.314634
-0.293424
-0.271974
-0.251212
-0.230705
-0.211463
-0.192244
-0.175664
-0.424565
-0.419241
-0.408819
-0.39265
-0.37579
-0.355638
-0.335514
-0.314033
-0.292861
-0.271449
-0.250706
-0.230217
-0.210979
-0.19178
-0.17517
-0.422144
-0.417791
-0.407469
-0.391703
-0.374935
-0.354955
-0.334891
-0.313485
-0.292347
-0.270968
-0.250242
-0.22977
-0.210534
-0.191354
-0.419978
-0.416493
-0.40626
-0.390854
-0.374169
-0.354341
-0.334332
-0.312991
-0.291884
-0.270534
-0.249823
-0.229366
-0.210132
-0.190969
-0.418071
-0.415351
-0.405195
-0.390106
-0.373494
-0.353799
-0.333837
-0.312555
-0.291474
-0.27015
-0.249452
-0.229007
-0.209774
-0.190626
-0.416427
-0.414366
-0.404277
-0.38946
-0.37291
-0.353332
-0.33341
-0.312177
-0.291119
-0.269817
-0.24913
-0.228696
-0.209463
-0.190329
-0.415052
-0.413542
-0.403509
-0.38892
-0.372422
-0.352939
-0.333051
-0.31186
-0.290821
-0.269537
-0.248859
-0.228434
-0.209201
-0.190079
-0.413947
-0.412881
-0.402892
-0.388486
-0.372029
-0.352624
-0.332762
-0.311605
-0.29058
-0.269312
-0.24864
-0.228223
-0.20899
-0.189877
-0.413116
-0.412383
-0.402427
-0.388159
-0.371733
-0.352386
-0.332545
-0.311412
-0.290399
-0.269141
-0.248475
-0.228064
-0.20883
-0.189724
-0.412561
-0.412051
-0.402117
-0.387941
-0.371536
-0.352227
-0.332399
-0.311284
-0.290278
-0.269027
-0.248365
-0.227957
-0.208723
-0.189622
-0.412283
-0.411884
-0.401962
-0.387831
-0.371437
-0.352147
-0.332327
-0.311219
-0.290217
-0.26897
-0.248309
-0.227903
-0.20867
-0.189571
-0.0886113
-0.0879789
-0.088943
-0.0872497
-0.0883079
-0.0892789
-0.0864301
-0.087575
-0.0886408
-0.0896186
-0.0867527
-0.0879037
-0.0889771
-0.0899617
-0.0858276
-0.0870782
-0.0882353
-0.0893163
-0.0903077
-0.0848004
-0.0861499
-0.0874064
-0.0885695
-0.0896583
-0.0906563
-0.0851196
-0.0864745
-0.087737
-0.088906
-0.0900025
-0.091007
-0.0839784
-0.0854409
-0.0868013
-0.0880696
-0.0892445
-0.0903485
-0.0913596
-0.0827225
-0.0842963
-0.0857642
-0.08713
-0.088404
-0.0895846
-0.090696
-0.0917136
-0.0830367
-0.0846159
-0.0860892
-0.0874603
-0.0887397
-0.0899261
-0.0910446
-0.0816554
-0.0833525
-0.0849371
-0.0864157
-0.0877919
-0.0890766
-0.0902685
-0.0913939
-0.0801471
-0.0819669
-0.0836697
-0.0852597
-0.0867434
-0.0881246
-0.0894144
-0.0906116
-0.0917435
-0.080454
-0.0822798
-0.0839882
-0.0855835
-0.087072
-0.0884581
-0.0897527
-0.0909551
-0.0920931
-0.0788081
-0.0807622
-0.0825939
-0.0843078
-0.0859081
-0.0874015
-0.0887922
-0.0900914
-0.0912986
-0.0924423
-0.079111
-0.0810713
-0.0829089
-0.0846282
-0.0862336
-0.0877315
-0.0891266
-0.09043
-0.0916419
-0.0927908
-0.0773213
-0.0794148
-0.0813814
-0.0832248
-0.0849494
-0.0865596
-0.0880619
-0.0894611
-0.0907684
-0.0919846
-0.0931381
-0.0776192
-0.0797194
-0.0816923
-0.0835413
-0.0852711
-0.0868859
-0.0883924
-0.0897954
-0.0911063
-0.0923264
-0.0934839
-0.0756798
-0.0779178
-0.0800247
-0.0820037
-0.0838584
-0.0855931
-0.0872125
-0.0887229
-0.0901294
-0.0914434
-0.092667
-0.0938279
-0.0759718
-0.078217
-0.0803305
-0.0823156
-0.0841758
-0.0859154
-0.087539
-0.0890531
-0.0904628
-0.0917795
-0.0930061
-0.0941698
-0.0762643
-0.0785167
-0.0806368
-0.0826279
-0.0844935
-0.0862378
-0.0878654
-0.0893828
-0.0907954
-0.0921143
-0.0933434
-0.0945092
-0.0741628
-0.0765573
-0.0788167
-0.0809434
-0.0829404
-0.0848112
-0.0865601
-0.0881915
-0.0897119
-0.0911269
-0.0924476
-0.0936786
-0.0948458
-0.0744485
-0.0768506
-0.079117
-0.0812502
-0.083253
-0.085129
-0.0868822
-0.0885171
-0.0900402
-0.0914572
-0.0927791
-0.0940114
-0.0951792
-0.0721867
-0.0747345
-0.0771441
-0.0794175
-0.0815571
-0.0835656
-0.0854465
-0.0872039
-0.0888421
-0.0903675
-0.091786
-0.0931086
-0.0943415
-0.0955091
-0.0724648
-0.0750205
-0.0774377
-0.079718
-0.0818639
-0.0838781
-0.0857638
-0.0875251
-0.0891663
-0.0906936
-0.0921132
-0.0934358
-0.0946686
-0.0958352
-0.0700382
-0.0727429
-0.0753067
-0.0777312
-0.0800184
-0.0821705
-0.0841902
-0.0860806
-0.0878455
-0.0894894
-0.0910182
-0.0924383
-0.0937604
-0.0949923
-0.096157
-0.0703083
-0.0730214
-0.0755931
-0.078025
-0.080319
-0.0824773
-0.0845023
-0.0863971
-0.0881654
-0.0898115
-0.0913414
-0.0927614
-0.0940822
-0.0953123
-0.0964741
-0.0705789
-0.0733006
-0.0758803
-0.0783197
-0.0806205
-0.0827849
-0.0848151
-0.0867142
-0.0884857
-0.0901337
-0.0916642
-0.0930835
-0.0944021
-0.0956293
-0.0967869
-0.0679741
-0.0708473
-0.0735775
-0.0761653
-0.0786123
-0.0809201
-0.0830907
-0.0851264
-0.0870299
-0.0888046
-0.0904546
-0.0919857
-0.0934041
-0.0947202
-0.0959437
-0.0970962
-0.0682249
-0.0711066
-0.0738449
-0.0764404
-0.0788946
-0.081209
-0.0833855
-0.0854264
-0.0873341
-0.089112
-0.090764
-0.0922957
-0.0937134
-0.0950275
-0.096248
-0.0973962
-0.0654493
-0.0684832
-0.0713722
-0.0741173
-0.076719
-0.0791787
-0.0814979
-0.0836783
-0.085722
-0.0876315
-0.0894099
-0.0910612
-0.0925908
-0.0940053
-0.0953149
-0.0965309
-0.0976743
-0.065779
-0.0688234
-0.0717218
-0.074475
-0.0770837
-0.0795491
-0.0818723
-0.084055
-0.0860991
-0.0880068
-0.0897809
-0.0914253
-0.0929451
-0.0943469
-0.095641
-0.096839
-0.0979625
-0.0661436
-0.0692071
-0.0721239
-0.0748951
-0.0775211
-0.0800028
-0.0823412
-0.0845378
-0.0865937
-0.0885108
-0.0902912
-0.0919377
-0.0934544
-0.0948466
-0.0961228
-0.097293
-0.0983756
)
;

boundaryField
{
    inlet
    {
        type            zeroGradient;
    }
    outlet
    {
        type            fixedValue;
        value           nonuniform 0();
    }
    cylinder
    {
        type            zeroGradient;
    }
    top
    {
        type            symmetryPlane;
    }
    bottom
    {
        type            symmetryPlane;
    }
    defaultFaces
    {
        type            empty;
    }
    procBoundary5to0
    {
        type            processor;
        value           nonuniform List<scalar> 5(0.0868499 0.0868499 0.0899384 0.0899384 0.0839998);
    }
    procBoundary5to1
    {
        type            processor;
        value           nonuniform List<scalar> 
84
(
0.0789963
0.0739395
0.0688337
0.063684
0.0524915
0.0584961
0.0524915
0.0470703
0.0416546
0.0362525
0.0308722
0.0255217
0.0202089
0.0149406
0.00972574
0.00457155
-0.000515084
-0.00552753
-0.0104594
-0.0153047
-0.0200578
-0.0247136
-0.0292672
-0.0337146
-0.0337146
-0.0364786
-0.0406705
-0.0447305
-0.0486545
-0.0524394
-0.0560823
-0.0595818
-0.0629352
-0.0882841
-0.087654
-0.087654
-0.0869281
-0.0869281
-0.0861108
-0.0861108
-0.0851915
-0.0855081
-0.0855081
-0.0844838
-0.0844838
-0.083349
-0.0836626
-0.0836626
-0.0824102
-0.0824102
-0.0810368
-0.0813453
-0.0813453
-0.0798415
-0.0798415
-0.0782057
-0.0785063
-0.0785063
-0.0767281
-0.0770242
-0.0770242
-0.0750976
-0.0753883
-0.0753883
-0.073308
-0.0735925
-0.0738775
-0.0738775
-0.071631
-0.0719088
-0.0719088
-0.069499
-0.0697686
-0.0697686
-0.0671915
-0.0674528
-0.0677147
-0.0677147
-0.0649569
-0.065199
-0.065199
-0.0622714
-0.0625898
-0.0629352
)
;
    }
    procBoundary5to2
    {
        type            processor;
        value           nonuniform List<scalar> 
35
(
-0.0993873
-0.0894968
-0.0898387
-0.0901855
-0.0905365
-0.0908914
-0.0912497
-0.0916111
-0.091975
-0.0923409
-0.0927084
-0.0920686
-0.0920686
-0.0924243
-0.0927804
-0.0931364
-0.0934921
-0.0938469
-0.0942005
-0.0945525
-0.0949025
-0.09525
-0.0955946
-0.0959357
-0.0962729
-0.0966058
-0.0969337
-0.0972562
-0.0975727
-0.097883
-0.0981883
-0.0984851
-0.0987612
-0.0990298
-0.0993873
)
;
    }
    procBoundary5to4
    {
        type            processor;
        value           nonuniform List<scalar> 
76
(
0.618778
0.618211
0.617079
0.615383
0.613125
0.610307
0.610307
0.568314
0.564917
0.561047
0.556707
0.551902
0.546639
0.540923
0.534761
0.52816
0.521127
0.513671
0.5058
0.497523
0.488849
0.479789
0.470353
0.460551
0.460551
0.422385
0.413367
0.40406
0.394471
0.384613
0.374494
0.364126
0.353519
0.342684
0.342684
0.319807
0.309957
0.29993
0.289735
0.279382
0.26888
0.26888
0.251783
0.242341
0.232787
0.223128
0.213373
0.213373
0.202276
0.193471
0.184594
0.175653
0.175653
0.167725
0.159647
0.151521
0.151521
0.145793
0.138402
0.130976
0.130976
0.126968
0.120176
0.120176
0.116994
0.110724
0.104429
0.104429
0.102665
0.102665
0.100603
0.0951005
0.0951005
0.0947395
0.0894592
0.0894592
)
;
    }
    procBoundary5to6
    {
        type            processor;
        value           nonuniform List<scalar> 
51
(
-0.105929
-0.100368
-0.105929
-0.105957