/*--------------------------------*- C++ -*----------------------------------*\
  =========                 |
  \\      /  F ield         | OpenFOAM: The Open Source CFD Toolbox
   \\    /   O peration     | Website:  https://openfoam.org
    \\  /    A nd           | Version:  7
     \\/     M anipulation  |
\*---------------------------------------------------------------------------*/
FoamFile
{
    version     2.0;
    format      ascii;
    class       volVectorField;
    location    "10";
    object      U;
}
// * * * * * * * * * * * * * * * * * * * * * * * * * * * * * * * * * * * * * //

dimensions      [0 1 -1 0 0 0 0];

internalField   nonuniform List<vector> 
2625
(
(-0.00177851 0.000225964 -6.39343e-21)
(0.0131596 0.0035623 -1.5246e-20)
(0.0832651 0.00725651 4.14643e-21)
(0.0131596 -0.00356247 1.5246e-20)
(0.0832651 -0.0072569 -4.14643e-21)
(0.191455 -0.00888752 1.64457e-21)
(0.296816 -0.00928234 7.81069e-21)
(0.402247 -0.00890004 1.82662e-21)
(0.0134286 -0.0106797 -1.57132e-20)
(0.0837844 -0.0217567 2.36014e-20)
(0.192059 -0.0266473 8.254e-21)
(0.297424 -0.0278328 -5.55688e-21)
(0.402812 -0.0266879 1.46654e-20)
(0.0139657 -0.0177744 -5.59518e-21)
(0.0848219 -0.0362157 -1.31863e-20)
(0.193264 -0.044363 1.51745e-20)
(0.298641 -0.0463421 -2.02225e-20)
(0.403942 -0.0444407 -3.82968e-20)
(0.0147695 -0.0248315 6.07929e-20)
(0.0863748 -0.0506069 1.57527e-20)
(0.195069 -0.0620051 -7.96234e-20)
(0.300462 -0.0647831 2.47153e-20)
(0.405635 -0.0621353 6.27356e-20)
(0.0158377 -0.0318362 -8.39557e-20)
(0.0884394 -0.0649033 4.15306e-20)
(0.19747 -0.0795445 1.04198e-19)
(0.302885 -0.0831286 -7.47864e-20)
(0.407887 -0.0797484 -4.69152e-20)
(0.0171673 -0.0387736 -4.70071e-20)
(0.0910105 -0.0790782 -5.36551e-20)
(0.20046 -0.0969521 -1.17777e-19)
(0.305906 -0.101351 1.38206e-19)
(0.410695 -0.097257 1.31744e-19)
(0.0187547 -0.0456293 1.37499e-19)
(0.0940818 -0.0931051 2.94962e-20)
(0.204035 -0.114199 9.43192e-21)
(0.309517 -0.119425 -8.29748e-20)
(0.414054 -0.114638 -1.61978e-19)
(0.50425 -0.105122 -1.41694e-19)
(0.0205953 -0.0523888 -2.5243e-20)
(0.0976455 -0.106958 -6.02144e-20)
(0.208184 -0.131258 1.30368e-19)
(0.313712 -0.137323 5.64443e-21)
(0.417958 -0.131869 4.1516e-20)
(0.507759 -0.12096 1.29007e-19)
(0.022684 -0.0590381 -7.78969e-20)
(0.101693 -0.120611 5.48526e-20)
(0.212901 -0.148099 6.3596e-20)
(0.318483 -0.155018 4.47076e-20)
(0.422401 -0.148928 2.66412e-21)
(0.511754 -0.136655 -5.52454e-20)
(0.0250149 -0.0655634 -4.54693e-20)
(0.106214 -0.134039 -1.56154e-19)
(0.218173 -0.164696 -2.36469e-19)
(0.323821 -0.172485 -1.41993e-19)
(0.427375 -0.165791 -5.88291e-21)
(0.51623 -0.15219 -4.12705e-20)
(0.0275816 -0.0719512 8.1071e-20)
(0.111197 -0.147218 1.73033e-19)
(0.22399 -0.181021 4.78627e-20)
(0.329715 -0.189699 1.89497e-19)
(0.432872 -0.182438 -4.71686e-20)
(0.52118 -0.167545 1.02343e-19)
(0.0303768 -0.0781884 1.95519e-19)
(0.11663 -0.160123 6.11762e-20)
(0.230339 -0.197047 -6.76832e-20)
(0.336154 -0.206634 -1.36341e-19)
(0.438883 -0.198846 1.22681e-19)
(0.526595 -0.182702 -1.60331e-19)
(0.0333927 -0.0842623 -1.79683e-19)
(0.1225 -0.17273 -1.00609e-19)
(0.237205 -0.212749 1.65926e-19)
(0.343125 -0.223265 7.52846e-20)
(0.445396 -0.214994 -9.33547e-20)
(0.532469 -0.197645 9.35575e-20)
(0.036621 -0.0901607 1.57227e-19)
(0.128791 -0.185017 -1.65423e-19)
(0.244573 -0.228102 -4.83508e-20)
(0.350615 -0.239569 -5.87395e-20)
(0.452401 -0.230862 -2.07366e-19)
(0.538792 -0.212355 9.58183e-20)
(0.0400524 -0.0958718 -9.5608e-20)
(0.135489 -0.196962 1.22617e-19)
(0.252427 -0.24308 -1.60704e-20)
(0.358608 -0.255522 2.52613e-19)
(0.459886 -0.246428 1.94527e-19)
(0.545554 -0.226816 -2.1264e-19)
(0.0436776 -0.101384 -1.0781e-19)
(0.142576 -0.208543 -4.55721e-20)
(0.260749 -0.257659 4.54513e-20)
(0.36709 -0.2711 -3.01411e-19)
(0.467838 -0.261673 1.65641e-19)
(0.552747 -0.24101 1.57053e-19)
(0.0474862 -0.106687 1.80648e-19)
(0.150035 -0.219741 7.46563e-20)
(0.269522 -0.271817 -1.6449e-19)
(0.376043 -0.286283 4.03404e-20)
(0.476243 -0.276577 -1.60082e-19)
(0.560357 -0.254922 -2.19606e-19)
(0.0514678 -0.111771 7.5141e-20)
(0.157847 -0.230534 5.18679e-20)
(0.278724 -0.285531 2.03881e-19)
(0.38545 -0.301047 2.71752e-20)
(0.485087 -0.29112 -1.16657e-19)
(0.568375 -0.268534 1.78161e-19)
(0.0556112 -0.116625 -3.83391e-19)
(0.165992 -0.240906 1.0145e-19)
(0.288337 -0.29878 -2.5601e-19)
(0.395292 -0.315372 1.20329e-20)
(0.494355 -0.305285 1.34429e-19)
(0.576788 -0.281831 -3.88705e-21)
(0.0599048 -0.121241 2.34029e-19)
(0.174451 -0.250837 -3.07674e-19)
(0.298337 -0.311542 3.05927e-19)
(0.40555 -0.329238 -2.55062e-22)
(0.50403 -0.319054 2.84999e-20)
(0.585583 -0.294798 1.17967e-19)
(0.0643366 -0.125611 8.86613e-20)
(0.183203 -0.260312 3.53185e-19)
(0.308704 -0.323799 -2.68083e-19)
(0.416203 -0.342625 -1.98828e-19)
(0.514095 -0.332408 -1.68645e-19)
(0.594746 -0.307421 -1.61681e-19)
(0.0688944 -0.129726 -2.31694e-19)
(0.192224 -0.269315 -2.59256e-19)
(0.319413 -0.335532 1.09897e-19)
(0.427231 -0.355514 2.36428e-19)
(0.524533 -0.345331 1.75492e-19)
(0.604264 -0.319684 9.83997e-20)
(0.0735655 -0.13358 2.56695e-19)
(0.201494 -0.277831 1.95883e-19)
(0.330441 -0.346724 2.655e-19)
(0.438611 -0.367889 -3.22013e-20)
(0.535326 -0.357807 -9.2163e-20)
(0.614122 -0.331573 -5.36135e-20)
(0.0783368 -0.137166 -1.15193e-19)
(0.210988 -0.285847 1.08413e-20)
(0.341762 -0.357357 -8.72978e-20)
(0.45032 -0.379732 6.3498e-20)
(0.546454 -0.36982 -4.074e-20)
(0.624304 -0.343076 -2.08952e-19)
(0.690454 -0.308191 4.09681e-19)
(0.0831951 -0.140479 -1.63777e-19)
(0.220682 -0.29335 -3.46525e-19)
(0.353352 -0.367417 -2.04087e-19)
(0.462335 -0.391027 7.81062e-22)
(0.557898 -0.381356 1.54118e-19)
(0.634796 -0.354179 9.09e-20)
(0.69979 -0.318459 -2.39711e-19)
(0.088127 -0.143513 -1.34694e-19)
(0.230554 -0.30033 1.37359e-19)
(0.365184 -0.37689 1.19658e-19)
(0.474632 -0.401759 -1.10731e-19)
(0.569638 -0.3924 -1.97751e-19)
(0.64558 -0.364869 -5.25978e-20)
(0.709402 -0.32839 -8.97034e-20)
(0.0931187 -0.146265 1.53649e-19)
(0.240577 -0.306776 1.61374e-19)
(0.37723 -0.385762 -9.06898e-20)
(0.487186 -0.411914 -1.0284e-19)
(0.581652 -0.402939 6.87877e-20)
(0.656639 -0.375135 1.91304e-19)
(0.719278 -0.337973 2.07762e-20)
(0.0981565 -0.148731 3.64097e-19)
(0.250727 -0.312681 -1.97258e-19)
(0.389464 -0.394022 1.46258e-19)
(0.499971 -0.421479 2.98368e-19)
(0.593919 -0.41296 1.05304e-19)
(0.667957 -0.384966 -4.60342e-20)
(0.729403 -0.3472 1.06151e-20)
(0.103227 -0.150908 -1.37016e-19)
(0.260978 -0.318036 4.34152e-20)
(0.401858 -0.401658 -2.92489e-20)
(0.512961 -0.430442 -2.45965e-19)
(0.606418 -0.422451 -7.75855e-20)
(0.679516 -0.39435 3.11172e-19)
(0.739764 -0.35606 -1.7542e-19)
(0.108315 -0.152795 -4.36485e-21)
(0.271304 -0.322835 -7.77483e-20)
(0.414384 -0.408663 -1.64226e-19)
(0.52613 -0.438792 8.75545e-20)
(0.619125 -0.431401 2.97506e-19)
(0.691296 -0.403277 -1.6229e-19)
(0.750346 -0.364546 3.6244e-19)
(0.113407 -0.15439 -2.17561e-19)
(0.28168 -0.327074 2.73857e-20)
(0.427012 -0.415027 1.13805e-19)
(0.539451 -0.44652 1.51311e-19)
(0.632017 -0.4398 -1.48996e-19)
(0.70328 -0.411738 1.49394e-19)
(0.761134 -0.372648 -1.54411e-19)
(0.11849 -0.155692 1.71846e-19)
(0.29208 -0.33075 8.49936e-20)
(0.439714 -0.420744 7.81981e-20)
(0.552895 -0.453615 -2.90669e-19)
(0.645071 -0.447638 -1.66333e-19)
(0.715447 -0.419724 -2.05222e-19)
(0.772114 -0.380359 -9.48518e-20)
(0.123548 -0.156703 1.38748e-19)
(0.302477 -0.333859 -3.57389e-20)
(0.452461 -0.425809 -2.28159e-20)
(0.566436 -0.460072 1.00524e-19)
(0.658262 -0.454907 1.05144e-19)
(0.727779 -0.427226 5.11339e-20)
(0.783269 -0.387671 -1.22182e-19)
(0.826528 -0.344779 -1.24177e-19)
(0.12857 -0.157422 -1.02513e-20)
(0.312845 -0.336401 9.07421e-22)
(0.465223 -0.430217 -1.27032e-19)
(0.580045 -0.465882 1.66239e-19)
(0.671567 -0.461599 -1.06553e-19)
(0.740255 -0.434236 -1.38211e-19)
(0.794584 -0.394577 8.55649e-20)
(0.836628 -0.351281 -3.59746e-20)
(0.13354 -0.157853 -3.5399e-19)
(0.323158 -0.338376 8.57652e-20)
(0.477971 -0.433966 1.90658e-19)
(0.593694 -0.471041 -1.67204e-19)
(0.68496 -0.467706 8.34819e-20)
(0.752855 -0.440747 2.96855e-20)
(0.806042 -0.40107 -2.14163e-20)
(0.846878 -0.357444 -1.63328e-20)
(0.138445 -0.157996 2.66808e-19)
(0.33339 -0.339786 -2.63261e-20)
(0.490674 -0.437054 -1.13423e-19)
(0.607353 -0.475544 1.04355e-19)
(0.698416 -0.473224 9.55435e-20)
(0.765557 -0.446754 1.53326e-19)
(0.817628 -0.407145 7.5922e-20)
(0.857265 -0.363264 1.88334e-19)
(0.143272 -0.157857 -2.1175e-19)
(0.343516 -0.340633 -4.76723e-20)
(0.503304 -0.439481 -8.93852e-20)
(0.620994 -0.479389 -8.11913e-20)
(0.711911 -0.478147 -2.55741e-19)
(0.778342 -0.452249 -1.26305e-19)
(0.829323 -0.412796 2.5879e-20)
(0.867776 -0.368735 -7.27981e-20)
(0.148009 -0.157437 2.38896e-19)
(0.35351 -0.340923 -4.99812e-21)
(0.51583 -0.441248 1.06233e-19)
(0.634588 -0.482573 -8.11524e-21)
(0.725417 -0.48247 2.95985e-19)
(0.791186 -0.457228 -1.48292e-20)
(0.841112 -0.418018 -2.14174e-20)
(0.878398 -0.373852 1.77384e-20)
(0.152641 -0.156743 -1.79616e-19)
(0.363346 -0.34066 9.00219e-20)
(0.528224 -0.442357 -1.03214e-20)
(0.648105 -0.485095 1.0834e-19)
(0.738909 -0.48619 -3.15966e-19)
(0.804069 -0.461686 -1.15498e-19)
(0.852976 -0.422805 2.03104e-19)
(0.889117 -0.378613 5.06052e-20)
(0.917433 -0.334198 9.04321e-21)
(0.157157 -0.15578 -3.68482e-20)
(0.373001 -0.339851 -1.30928e-19)
(0.540456 -0.442814 4.28775e-20)
(0.661517 -0.486956 -5.11091e-20)
(0.752361 -0.489306 1.17157e-19)
(0.816968 -0.46562 5.07004e-20)
(0.864897 -0.427154 -1.43267e-19)
(0.899918 -0.383012 -1.43441e-20)
(0.92707 -0.338412 -7.16667e-20)
(0.161546 -0.154554 1.6048e-19)
(0.38245 -0.338504 2.7633e-20)
(0.552497 -0.442623 -4.30053e-20)
(0.674794 -0.488158 3.83788e-20)
(0.765747 -0.491815 6.00861e-20)
(0.829862 -0.469026 1.34534e-19)
(0.876859 -0.431062 1.31598e-19)
(0.910788 -0.387047 -1.32413e-19)
(0.93679 -0.342327 -4.81607e-20)
(0.165797 -0.153072 -1.04205e-19)
(0.39167 -0.33663 1.90834e-20)
(0.56432 -0.44179 -7.31363e-20)
(0.687908 -0.488704 -8.73416e-20)
(0.77904 -0.493717 -8.5423e-20)
(0.842726 -0.471902 -5.84777e-20)
(0.888842 -0.434524 -1.76579e-19)
(0.921713 -0.390714 8.87851e-20)
(0.946583 -0.34594 1.20885e-20)
(0.169896 -0.15134 5.79865e-20)
(0.400637 -0.334236 3.85774e-21)
(0.575895 -0.440324 9.16952e-20)
(0.700829 -0.488597 9.90657e-21)
(0.792214 -0.495012 -4.45594e-20)
(0.85554 -0.474246 5.87417e-21)
(0.900828 -0.437539 2.53994e-20)
(0.932677 -0.394011 1.05492e-19)
(0.956438 -0.349248 3.19037e-20)
(0.173834 -0.149367 -7.38466e-20)
(0.409328 -0.331336 1.98961e-20)
(0.587195 -0.438232 -2.52488e-20)
(0.713529 -0.487842 -1.4804e-20)
(0.805242 -0.495703 1.33771e-19)
(0.868279 -0.476057 7.71831e-20)
(0.912798 -0.440104 -1.4486e-20)
(0.943665 -0.396936 -7.10212e-20)
(0.966343 -0.352249 3.84915e-20)
(0.983358 -0.309673 -2.95229e-20)
(0.177601 -0.147159 4.63383e-20)
(0.417723 -0.32794 -3.78086e-20)
(0.598193 -0.435527 3.25159e-20)
(0.725979 -0.486446 5.96654e-20)
(0.818097 -0.495791 -5.39836e-20)
(0.88092 -0.477336 -7.9841e-20)
(0.924733 -0.442217 -4.52146e-20)
(0.954664 -0.399485 -6.26069e-21)
(0.976285 -0.354942 -6.83098e-21)
(0.99226 -0.312299 2.22017e-19)
(0.181185 -0.144727 2.26298e-20)
(0.425799 -0.324064 5.23642e-20)
(0.608861 -0.432219 -1.38759e-20)
(0.738151 -0.484417 -3.96542e-20)
(0.830753 -0.495279 -3.36123e-20)
(0.893441 -0.478082 -1.11863e-20)
(0.936614 -0.443878 1.20401e-19)
(0.965657 -0.401658 1.42205e-20)
(0.986254 -0.357325 1.88912e-20)
(1.00121 -0.314668 -5.67921e-20)
(0.18458 -0.14208 -1.47221e-20)
(0.433536 -0.319721 -9.47622e-21)
(0.619175 -0.42832 -1.20855e-20)
(0.750017 -0.481763 -3.66882e-21)
(0.843183 -0.494172 3.2862e-20)
(0.905818 -0.478296 5.52349e-20)
(0.948422 -0.445085 -1.39766e-19)
(0.976629 -0.403454 1.50467e-20)
(0.996238 -0.359397 4.9728e-20)
(1.01019 -0.31678 -2.93868e-21)
(0.187775 -0.139227 -2.31313e-20)
(0.440916 -0.314927 -2.34376e-20)
(0.629109 -0.423847 -1.73108e-20)
(0.76155 -0.478493 -1.10418e-20)
(0.855362 -0.492476 -3.1231e-20)
(0.918027 -0.477981 -1.40286e-20)
(0.960137 -0.445839 5.09767e-20)
(0.987564 -0.40487 -6.43514e-20)
(1.00622 -0.361156 -2.42461e-20)
(1.0192 -0.318633 -4.77295e-20)
(1.02891 -0.27918 2.15889e-20)
(0.190763 -0.136179 -6.67823e-21)
(0.447919 -0.3097 9.11433e-21)
(0.638639 -0.418812 9.53771e-21)
(0.772724 -0.47462 3.3108e-20)
(0.867262 -0.490196 2.70643e-20)
(0.930046 -0.477138 -1.39285e-20)
(0.971739 -0.446139 3.26136e-20)
(0.998447 -0.405908 5.71452e-21)
(1.0162 -0.362603 -9.59407e-21)
(1.02822 -0.320227 8.9599e-20)
(1.03701 -0.280764 1.19223e-19)
(0.193537 -0.132947 -4.8673e-21)
(0.454529 -0.304056 -8.6571e-21)
(0.64774 -0.413233 -1.81722e-21)
(0.783511 -0.470154 -1.25742e-20)
(0.878859 -0.48734 9.32042e-21)
(0.941849 -0.475773 2.90034e-20)
(0.983209 -0.445988 -3.1839e-20)
(1.00926 -0.406566 -1.75697e-20)
(1.02615 -0.363735 -7.28408e-20)
(1.03725 -0.321563 -1.37946e-19)
(1.04513 -0.282132 -7.57148e-20)
(0.19609 -0.129541 1.94562e-20)
(0.46073 -0.298014 1.19063e-20)
(0.656392 -0.407128 -1.44098e-21)
(0.793886 -0.46511 1.54645e-21)
(0.890125 -0.483915 -2.18989e-20)
(0.953415 -0.473887 -2.61924e-20)
(0.994526 -0.445385 3.8996e-20)
(1.01999 -0.406845 -2.38754e-21)
(1.03607 -0.364554 4.24547e-20)
(1.04628 -0.322639 -8.28775e-21)
(1.05326 -0.283285 6.57893e-20)
(1.05823 -0.247434 6.91804e-20)
(0.198416 -0.125973 -9.41263e-21)
(0.466504 -0.291592 8.16081e-21)
(0.664571 -0.400514 1.9852e-20)
(0.803824 -0.459501 -9.58876e-21)
(0.901037 -0.479932 -9.20993e-21)
(0.964718 -0.471487 3.14581e-20)
(1.00567 -0.444334 -1.755e-20)
(1.03062 -0.406746 1.70594e-20)
(1.04593 -0.365059 -2.08685e-20)
(1.05529 -0.323455 -3.30603e-20)
(1.06141 -0.284221 -7.77536e-20)
(1.06556 -0.248367 -1.5217e-19)
(0.20051 -0.122255 -4.30846e-20)
(0.47184 -0.284812 1.42805e-20)
(0.672258 -0.393412 -7.29176e-21)
(0.813302 -0.453344 2.23254e-20)
(0.911568 -0.475399 -8.13043e-22)
(0.975737 -0.468578 -2.49988e-20)
(1.01662 -0.442836 3.34132e-20)
(1.04113 -0.406268 -8.41777e-21)
(1.05574 -0.365251 1.91412e-20)
(1.06428 -0.324012 8.38849e-20)
(1.06955 -0.284942 -3.7109e-20)
(1.07291 -0.249119 1.14568e-19)
(0.202367 -0.118398 1.88017e-20)
(0.476724 -0.277694 -7.30209e-20)
(0.679432 -0.38584 -1.54643e-20)
(0.822294 -0.446654 -8.17498e-21)
(0.921695 -0.470328 -4.71578e-21)
(0.986447 -0.465166 2.28096e-21)
(1.02736 -0.440895 -3.81538e-20)
(1.0515 -0.405413 -5.74795e-21)
(1.06547 -0.365129 7.86914e-22)
(1.07323 -0.32431 -1.00343e-21)
(1.07769 -0.285448 1.13269e-19)
(1.08026 -0.249691 -6.27917e-20)
(1.08177 -0.217296 -8.77223e-20)
(0.203983 -0.114415 4.43608e-20)
(0.481144 -0.270259 2.66575e-20)
(0.686077 -0.377822 -3.24479e-20)
(0.830779 -0.439448 -1.45255e-20)
(0.931393 -0.464731 -3.2473e-21)
(0.996825 -0.461259 -6.02276e-21)
(1.03786 -0.438513 -9.73077e-21)
(1.06172 -0.404183 1.13892e-20)
(1.07511 -0.364694 -1.52506e-20)
(1.08214 -0.32435 -7.30102e-21)
(1.08581 -0.285739 -2.93326e-21)
(1.08762 -0.250083 -1.30161e-22)
(1.08843 -0.217701 5.09561e-20)
(0.205355 -0.110318 -3.92128e-20)
(0.485089 -0.262529 -2.12509e-20)
(0.692173 -0.369379 5.89643e-21)
(0.838736 -0.431746 -2.78274e-21)
(0.940638 -0.45862 1.64308e-20)
(1.00685 -0.456863 -3.24155e-21)
(1.0481 -0.435696 2.09243e-20)
(1.07178 -0.40258 1.94693e-22)
(1.08465 -0.363948 3.56056e-20)
(1.091 -0.324132 1.10391e-20)
(1.09391 -0.285817 -4.32123e-20)
(1.09498 -0.250296 3.80058e-20)
(1.09509 -0.217955 7.84697e-21)
(1.09456 -0.188699 -7.49939e-20)
(0.206481 -0.106119 1.93752e-20)
(0.48855 -0.254525 -2.63621e-21)
(0.697707 -0.360535 4.74707e-20)
(0.846142 -0.423566 6.27804e-20)
(0.949407 -0.45201 -3.27291e-20)
(1.01649 -0.451988 4.79359e-21)
(1.05808 -0.432448 -7.50077e-21)
(1.08164 -0.400606 -1.63704e-21)
(1.09407 -0.362891 -2.61103e-20)
(1.09979 -0.323657 1.51311e-20)
(1.10198 -0.285682 -6.21351e-20)
(1.10232 -0.250332 1.18122e-20)
(1.10176 -0.218058 -8.67584e-20)
(1.10062 -0.188808 3.50669e-20)
(0.207358 -0.101831 -3.57058e-20)
(0.491519 -0.246272 6.15575e-20)
(0.702663 -0.351312 4.95361e-22)
(0.852979 -0.414929 -3.96656e-22)
(0.957679 -0.444915 5.21723e-20)
(1.02574 -0.446643 1.29954e-20)
(1.06775 -0.428773 1.67914e-21)
(1.0913 -0.398263 7.06503e-21)
(1.10336 -0.361524 2.45824e-20)
(1.1085 -0.322926 -1.33056e-20)
(1.11001 -0.285335 4.43054e-20)
(1.10965 -0.25019 -6.65353e-20)
(1.10843 -0.218013 1.08973e-20)
(1.10669 -0.18879 -2.19622e-20)
(0.207987 -0.0974669 -1.51781e-20)
(0.493989 -0.237791 -8.90816e-20)
(0.707027 -0.341735 -5.70241e-20)
(0.859228 -0.405855 2.87246e-21)
(0.96543 -0.437349 1.55456e-22)
(1.03456 -0.440837 -8.3607e-21)
(1.07711 -0.424678 -4.34524e-21)
(1.10074 -0.395554 -3.37255e-21)
(1.11251 -0.35985 -1.24113e-20)
(1.11712 -0.321939 1.71148e-20)
(1.11798 -0.284777 -2.02584e-20)
(1.11696 -0.249873 5.72145e-20)
(1.11509 -0.21782 6.75571e-21)
(1.11277 -0.188648 -3.11872e-20)
(1.11018 -0.162065 6.66356e-20)
(0.208365 -0.0930388 9.56148e-20)
(0.495955 -0.229107 7.2224e-20)
(0.710789 -0.33183 7.06867e-21)
(0.864871 -0.396368 -5.64392e-20)
(0.972641 -0.429331 -3.66047e-20)
(1.04294 -0.434583 3.39828e-21)
(1.08612 -0.420168 3.45724e-21)
(1.10994 -0.392483 -1.27882e-21)
(1.1215 -0.357869 -1.05427e-20)
(1.12565 -0.320699 5.80779e-21)
(1.12591 -0.284009 -5.2074e-21)
(1.12423 -0.249382 -3.07233e-20)
(1.12174 -0.217481 2.54036e-20)
(1.11885 -0.188382 7.43431e-21)
(1.11576 -0.161821 -1.55537e-20)
(1.1124 -0.137534 1.29251e-20)
(0.208494 -0.0885593 1.67233e-20)
(0.497413 -0.220243 -5.95053e-20)
(0.713938 -0.321623 -4.87746e-21)
(0.869891 -0.386489 -9.03038e-22)
(0.97929 -0.420877 1.1589e-20)
(1.05085 -0.42789 2.29074e-20)
(1.09478 -0.415251 -3.59412e-21)
(1.11888 -0.389052 -7.01713e-21)
(1.13031 -0.355585 4.66183e-21)
(1.13406 -0.319206 -1.3379e-20)
(1.13376 -0.283032 1.31622e-20)
(1.13147 -0.248717 -6.68892e-21)
(1.12837 -0.216997 2.01254e-21)
(1.12493 -0.187993 -7.42108e-21)
(1.12134 -0.161473 -1.10065e-20)
(1.11758 -0.137192 8.87666e-22)
(0.208375 -0.0840409 -6.42499e-20)
(0.49836 -0.211223 3.82625e-20)
(0.716464 -0.311138 1.57874e-20)
(0.874275 -0.376242 5.99844e-21)
(0.985358 -0.412004 3.81914e-20)
(1.05827 -0.420772 -4.00929e-20)
(1.10306 -0.409933 1.11557e-20)
(1.12754 -0.385268 1.8507e-20)
(1.13893 -0.352998 1.48444e-21)
(1.14235 -0.317461 9.34384e-22)
(1.14154 -0.281848 -1.46378e-20)
(1.13866 -0.24788 -4.07455e-22)
(1.13498 -0.216368 2.10326e-20)
(1.131 -0.187483 6.36863e-20)
(1.12694 -0.161025 1.77499e-20)
(1.12277 -0.136764 -2.14889e-20)
(1.11857 -0.114131 -1.51929e-20)
(0.20801 -0.079496 -5.70039e-20)
(0.498795 -0.20207 2.14776e-20)
(0.71836 -0.300403 -4.82726e-20)
(0.878007 -0.36565 1.23461e-20)
(0.990826 -0.402732 -3.06359e-20)
(1.06518 -0.41324 3.86099e-20)
(1.11094 -0.404223 -3.20586e-20)
(1.1359 -0.381132 -7.22724e-21)
(1.14735 -0.350111 -8.61732e-21)
(1.1505 -0.315466 -3.39384e-21)
(1.14923 -0.280457 1.64917e-20)
(1.14581 -0.246872 1.572e-20)
(1.14156 -0.215598 -3.08696e-20)
(1.13705 -0.186854 2.92916e-21)
(1.13253 -0.160476 -1.88477e-20)
(1.12796 -0.136253 -2.85596e-21)
(1.12345 -0.113622 -2.16074e-20)
(0.2074 -0.0749367 -1.85007e-20)
(0.498717 -0.19281 2.93141e-20)
(0.71962 -0.289445 5.96946e-20)
(0.881075 -0.35474 1.25349e-20)
(0.995677 -0.393079 -4.27602e-20)
(1.07157 -0.40531 -4.07865e-21)
(1.1184 -0.398129 1.15864e-20)
(1.14395 -0.376651 1.51149e-20)
(1.15554 -0.346927 3.74747e-22)
(1.15851 -0.313223 3.6401e-21)
(1.15683 -0.278861 -9.61775e-21)
(1.15289 -0.245695 -3.27114e-21)
(1.14811 -0.214686 -1.34865e-20)
(1.14309 -0.186108 -2.20208e-20)
(1.13811 -0.159828 1.84965e-20)
(1.13317 -0.135661 1.44206e-20)
(1.12833 -0.113049 6.93057e-21)
(1.12342 -0.0922308 -3.96227e-20)
(0.20655 -0.0703751 4.9259e-20)
(0.498128 -0.183465 -2.0886e-20)
(0.72024 -0.278291 1.71475e-20)
(0.883469 -0.343536 -8.24304e-21)
(0.999894 -0.383067 5.09784e-20)
(1.0774 -0.396995 -6.32279e-20)
(1.12541 -0.39166 1.32477e-20)
(1.15167 -0.371829 1.7434e-21)
(1.1635 -0.343448 -1.02848e-20)
(1.16636 -0.310733 6.19568e-22)
(1.16432 -0.277061 5.98831e-21)
(1.15992 -0.244349 -5.74023e-21)
(1.15462 -0.213635 2.57524e-20)
(1.14911 -0.185244 1.60874e-21)
(1.14368 -0.159084 1.03036e-20)
(1.13837 -0.134989 6.32199e-21)
(1.13323 -0.112412 1.28951e-20)
(1.1281 -0.0915907 -1.66127e-21)
(1.12328 -0.0708065 2.28719e-20)
(0.205462 -0.065823 -4.12922e-20)
(0.497031 -0.174059 -2.87128e-20)
(0.720216 -0.266968 -5.44421e-21)
(0.885178 -0.332064 -8.13831e-21)
(1.00346 -0.372717 6.61742e-20)
(1.08266 -0.38831 5.67162e-20)
(1.13196 -0.384825 7.10279e-21)
(1.15903 -0.366672 -1.73459e-20)
(1.17121 -0.339678 1.78886e-20)
(1.17403 -0.307998 -8.02905e-21)
(1.1717 -0.275058 -2.20632e-21)
(1.16686 -0.242837 2.97648e-22)
(1.16108 -0.212446 -4.95141e-21)
(1.1551 -0.184266 -1.02391e-21)
(1.14925 -0.158245 -4.43066e-20)
(1.14357 -0.134238 -3.93521e-22)
(1.13813 -0.111714 -1.20573e-20)
(1.13279 -0.0909032 -1.53856e-20)
(1.12778 -0.0701281 -1.48488e-20)
(1.12264 -0.0523901 -8.00616e-21)
(0.204142 -0.0612919 6.84477e-20)
(0.495429 -0.164616 9.74554e-21)
(0.719548 -0.255504 -2.05775e-20)
(0.886194 -0.32035 -2.6584e-20)
(1.00636 -0.362049 -7.49936e-20)
(1.08734 -0.379271 3.39403e-20)
(1.13803 -0.377635 1.95566e-20)
(1.16603 -0.361185 -3.71948e-22)
(1.17864 -0.335619 5.06821e-22)
(1.18151 -0.30502 1.19404e-20)
(1.17896 -0.272855 1.08571e-21)
(1.17373 -0.24116 6.16777e-21)
(1.1675 -0.211121 6.09759e-21)
(1.16106 -0.183175 -1.01563e-20)
(1.15479 -0.157312 6.11481e-21)
(1.14876 -0.133411 -3.86651e-22)
(1.14303 -0.110956 -2.29851e-20)
(1.1375 -0.0901708 3.09111e-21)
(1.1323 -0.0694249 2.83373e-20)
(1.12716 -0.0515481 -3.3932e-20)
(0.202594 -0.056793 -8.55786e-20)
(0.493327 -0.155159 -5.4738e-20)
(0.718236 -0.243926 -1.09911e-21)
(0.886511 -0.308421 3.2074e-20)
(1.00859 -0.351086 -3.50636e-20)
(1.09141 -0.369894 -3.45515e-20)
(1.1436 -0.370101 1.33998e-20)
(1.17263 -0.355376 -9.54615e-21)
(1.18579 -0.331275 1.23458e-20)
(1.1888 -0.3018 6.92868e-21)
(1.18608 -0.270451 -3.16379e-21)
(1.18051 -0.239318 -2.30645e-21)
(1.17385 -0.20966 -3.66434e-21)
(1.16698 -0.181972 6.27604e-21)
(1.16031 -0.156287 9.14001e-21)
(1.15394 -0.13251 -2.17291e-20)
(1.14793 -0.110141 1.64066e-20)
(1.1422 -0.0893954 -1.03581e-20)
(1.13684 -0.0686991 -3.60732e-20)
(1.1317 -0.0506962 3.45362e-20)
(0.200823 -0.0523374 9.43445e-20)
(0.490733 -0.145711 1.28234e-19)
(0.71628 -0.232262 4.84957e-20)
(0.886122 -0.296304 -6.16463e-20)
(1.01013 -0.339851 -2.79139e-21)
(1.09486 -0.360197 1.98145e-20)
(1.14865 -0.362233 -5.67821e-20)
(1.17881 -0.34925 2.06268e-20)
(1.19263 -0.326649 -1.26191e-20)
(1.19586 -0.298341 -1.02649e-20)
(1.19305 -0.267849 3.90797e-21)
(1.18719 -0.237313 -1.78344e-21)
(1.18014 -0.208066 1.66236e-21)
(1.17287 -0.180659 -4.76323e-22)
(1.16581 -0.155171 2.65896e-21)
(1.15911 -0.131534 1.8046e-21)
(1.15282 -0.10927 6.34322e-21)
(1.14691 -0.0885792 7.61021e-21)
(1.14139 -0.0679528 -1.99152e-21)
(1.13624 -0.0498389 -1.30966e-20)
(0.198836 -0.0479354 -2.14701e-20)
(0.487653 -0.136295 -7.29969e-21)
(0.713686 -0.220539 2.24305e-20)
(0.885025 -0.284026 1.81878e-20)
(1.01096 -0.328367 3.01408e-20)
(1.09767 -0.350197 -3.65608e-20)
(1.15315 -0.354043 3.41392e-20)
(1.18457 -0.342815 -1.07616e-20)
(1.19914 -0.321746 1.40554e-20)
(1.2027 -0.294644 4.04103e-21)
(1.19987 -0.26505 -1.51414e-21)
(1.19377 -0.235147 5.48075e-21)
(1.18637 -0.206339 2.93878e-22)
(1.1787 -0.179237 -9.93983e-22)
(1.17128 -0.153967 -1.32859e-21)
(1.16426 -0.130488 1.18534e-20)
(1.15771 -0.108344 -4.77596e-22)
(1.15162 -0.0877243 -6.97053e-21)
(1.14594 -0.0671882 2.86536e-21)
(1.14079 -0.0489805 -1.81421e-20)
(0.19664 -0.0435974 -2.82655e-20)
(0.484097 -0.126933 -2.62242e-20)
(0.710456 -0.208786 -1.18405e-19)
(0.883217 -0.271616 7.37643e-20)
(1.01109 -0.316658 -1.67908e-21)
(1.09983 -0.339912 2.92428e-20)
(1.15709 -0.345545 -2.11682e-20)
(1.18988 -0.336078 7.53306e-21)
(1.20532 -0.316569 9.41247e-21)
(1.20929 -0.290712 -7.98058e-21)
(1.20651 -0.262055 -9.11889e-21)
(1.20023 -0.23282 -6.02773e-21)
(1.19251 -0.204481 -1.05263e-21)
(1.18449 -0.177708 4.57715e-22)
(1.17671 -0.152676 5.13501e-21)
(1.16938 -0.129371 -3.40417e-21)
(1.16258 -0.107365 3.52017e-21)
(1.15631 -0.0868326 -1.38676e-21)
(1.1505 -0.0664068 5.63162e-21)
(1.14534 -0.0481249 1.88203e-20)
(0.194242 -0.039333 2.36484e-20)
(0.480074 -0.117646 -2.41511e-20)
(0.706599 -0.197028 1.25791e-19)
(0.880698 -0.2591 -1.22729e-19)
(1.01049 -0.304749 5.84132e-20)
(1.10131 -0.329362 -2.04151e-20)
(1.16046 -0.336751 -2.36204e-20)
(1.19472 -0.329047 4.883e-21)
(1.21114 -0.311122 2.8406e-21)
(1.21562 -0.286547 -2.56444e-21)
(1.21298 -0.258865 1.78747e-20)
(1.20657 -0.230333 -1.7831e-21)
(1.19857 -0.202493 -2.64565e-22)
(1.19022 -0.176073 -2.68585e-22)
(1.1821 -0.151298 -5.82363e-21)
(1.17448 -0.128186 -6.04824e-21)
(1.16743 -0.106335 -8.47499e-21)
(1.161 -0.0859059 2.49184e-21)
(1.15505 -0.0656104 4.59538e-21)
(0.191648 -0.0351517 5.36803e-20)
(0.475597 -0.108455 -3.18321e-20)
(0.702121 -0.185292 -2.70367e-20)
(0.877469 -0.246507 7.45582e-20)
(1.00917 -0.292664 -3.9091e-20)
(1.10211 -0.318566 -3.72781e-20)
(1.16322 -0.327674 -9.84133e-22)
(1.19906 -0.321731 -2.1613e-20)
(1.21657 -0.305411 -3.26045e-20)
(1.22167 -0.282151 1.88339e-21)
(1.21925 -0.255482 -1.61149e-20)
(1.21277 -0.227688 5.20922e-21)
(1.20455 -0.200376 -1.33058e-21)
(1.19588 -0.174333 -7.52206e-22)
(1.18745 -0.149836 2.02374e-21)
(1.17954 -0.126934 -1.68698e-21)
(1.17226 -0.105255 2.22745e-21)
(1.16566 -0.0849459 -8.94056e-22)
(1.15959 -0.0648004 4.45478e-22)
(0.188868 -0.0310622 -6.06681e-20)
(0.470677 -0.0993806 1.5031e-20)
(0.697032 -0.173605 7.07251e-21)
(0.873533 -0.233864 -1.81316e-21)
(1.00712 -0.280429 -1.41562e-20)
(1.10222 -0.307545 8.05683e-20)
(1.16538 -0.31833 2.06655e-20)
(1.2029 -0.31414 1.86859e-20)
(1.22162 -0.299441 2.19252e-20)
(1.22743 -0.277526 1.80718e-20)
(1.2253 -0.251906 1.06236e-20)
(1.21883 -0.224886 -3.33361e-21)
(1.21042 -0.198132 3.4009e-21)
(1.20148 -0.17249 3.0057e-22)
(1.19275 -0.148291 8.53238e-22)
(1.18458 -0.125616 3.46957e-21)
(1.17706 -0.104127 2.62719e-22)
(1.17031 -0.0839543 3.87851e-21)
(1.16412 -0.0639779 1.67972e-21)
(0.18591 -0.0270729 4.2743e-20)
(0.465328 -0.0904425 2.73951e-20)
(0.691344 -0.161993 -6.64005e-20)
(0.868893 -0.221198 3.48544e-20)
(1.00433 -0.268068 -2.53534e-21)
(1.10162 -0.296319 -5.02478e-20)
(1.1669 -0.308732 -3.20443e-20)
(1.20621 -0.306281 -2.22194e-21)
(1.22624 -0.293216 -4.68289e-21)
(1.23287 -0.272676 -1.55164e-20)
(1.23114 -0.24814 -5.39853e-21)
(1.22474 -0.221927 2.09278e-21)
(1.21619 -0.195761 -8.99088e-22)
(1.207 -0.170544 -3.86427e-23)
(1.198 -0.146664 8.88572e-23)
(1.18957 -0.124233 -7.20001e-22)
(1.18183 -0.102951 1.20437e-21)
(1.17493 -0.0829323 -1.4042e-21)
(1.16863 -0.0631442 -3.49455e-21)
(0.182782 -0.0231916 -1.28541e-20)
(0.459564 -0.0816595 -3.27395e-20)
(0.685068 -0.150481 6.18297e-21)
(0.863557 -0.208538 -3.84824e-20)
(1.00081 -0.255607 8.78344e-21)
(1.1003 -0.284908 2.35479e-20)
(1.16777 -0.298898 1.71585e-20)
(1.20897 -0.298165 9.57868e-21)
(1.23043 -0.286742 -2.85832e-20)
(1.23799 -0.267603 -3.60897e-22)
(1.23674 -0.244185 2.15944e-22)
(1.23047 -0.218812 1.06933e-21)
(1.22184 -0.193263 -2.36962e-21)
(1.21245 -0.168497 -2.2063e-21)
(1.20319 -0.144956 -1.99148e-23)
(1.19452 -0.122788 -2.88676e-22)
(1.18657 -0.101729 6.38907e-22)
(1.17952 -0.0818813 7.59229e-22)
(1.17312 -0.0622998 -5.14866e-22)
(0.179495 -0.0194259 -9.45294e-22)
(0.4534 -0.0730497 3.78884e-20)
(0.678219 -0.139094 8.0381e-21)
(0.857531 -0.195911 -9.56682e-21)
(0.99655 -0.243073 -3.57083e-20)
(1.09825 -0.273336 -3.77983e-21)
(1.16797 -0.288841 1.62335e-20)
(1.21116 -0.289804 -2.08698e-20)
(1.23416 -0.280025 2.66824e-20)
(1.24276 -0.26231 7.01109e-21)
(1.24209 -0.24004 3.34925e-21)
(1.23603 -0.215542 -2.64243e-21)
(1.22737 -0.19064 6.97511e-22)
(1.21781 -0.16635 1.4102e-21)
(1.20832 -0.143168 -1.26049e-21)
(1.19942 -0.12128 1.51262e-22)
(1.19127 -0.100462 2.42942e-22)
(1.18408 -0.0808023 1.31502e-22)
(1.17758 -0.0614454 1.86458e-21)
(0.176056 -0.0157823 -3.28599e-21)
(0.446854 -0.06463 -2.17616e-20)
(0.670811 -0.127855 3.48354e-20)
(0.850826 -0.183343 1.01134e-20)
(0.991553 -0.230492 1.47124e-20)
(1.09547 -0.261624 -1.19108e-20)
(1.1675 -0.27858 -8.62544e-21)
(1.21277 -0.281207 -2.11463e-21)
(1.23741 -0.273071 -6.94054e-21)
(1.24716 -0.2568 -1.27006e-20)
(1.24716 -0.235709 -5.32071e-21)
(1.24141 -0.212118 4.1396e-21)
(1.23277 -0.187893 1.41118e-21)
(1.22307 -0.164103 2.58896e-21)
(1.21338 -0.141301 3.21832e-22)
(1.20426 -0.119712 1.98998e-22)
(1.19593 -0.0991498 1.19815e-22)
(1.1886 -0.0796961 -5.62393e-22)
(1.182 -0.0605814 4.38963e-22)
(0.172476 -0.0122673 -9.51519e-21)
(0.439941 -0.056417 -8.26731e-21)
(0.662861 -0.116787 -2.27398e-20)
(0.843452 -0.17086 8.07397e-21)
(0.98582 -0.217888 7.24394e-21)
(1.09195 -0.249795 1.44841e-21)
(1.16634 -0.268132 3.70637e-21)
(1.21377 -0.272386 6.02466e-21)
(1.24017 -0.265888 2.02544e-21)
(1.25118 -0.251076 9.90516e-21)
(1.25196 -0.231192 3.18788e-21)
(1.24657 -0.208539 -1.779e-21)
(1.23802 -0.18502 1.11629e-21)
(1.22824 -0.161756 -2.47036e-21)
(1.21837 -0.139357 7.3082e-22)
(1.20905 -0.118083 -3.81797e-22)
(1.20054 -0.0977942 -3.16365e-23)
(1.19307 -0.0785634 4.06436e-22)
(1.18639 -0.0597078 -5.66263e-23)
(0.168765 -0.00888645 9.03946e-21)
(0.432679 -0.0484258 4.92601e-21)
(0.654387 -0.105914 1.15619e-21)
(0.835422 -0.15849 -6.84858e-21)
(0.979357 -0.205289 1.11427e-21)
(1.08768 -0.237871 -3.67158e-21)
(1.16447 -0.257513 7.41978e-22)
(1.21414 -0.263354 3.12949e-21)
(1.24241 -0.258481 -3.82042e-21)
(1.25479 -0.245141 -3.18781e-21)
(1.25645 -0.22649 7.25069e-22)
(1.25152 -0.204806 -2.83731e-23)
(1.24312 -0.182023 -1.16764e-21)
(1.23329 -0.159311 9.22258e-22)
(1.22328 -0.137334 -1.75645e-22)
(1.21378 -0.116394 7.99391e-23)
(1.2051 -0.0963955 9.45134e-23)
(1.1975 -0.0774047 -3.17484e-23)
(1.19074 -0.0588247 -3.35353e-23)
(0.164934 -0.00564494 9.29457e-21)
(0.425088 -0.0406709 5.31271e-21)
(0.645408 -0.0952559 1.19837e-21)
(0.82675 -0.146258 -7.0506e-21)
(0.972171 -0.192721 1.14435e-21)
(1.08266 -0.225876 -4.1468e-21)
(1.16188 -0.246744 1.07159e-21)
(1.21387 -0.254123 3.43952e-21)
(1.24411 -0.25086 -4.24387e-21)
(1.25797 -0.239 -3.42101e-21)
(1.26061 -0.221605 5.42737e-22)
(1.25624 -0.200919 8.88926e-23)
(1.24806 -0.178902 -1.42682e-21)
(1.23823 -0.156767 1.10511e-21)