/*--------------------------------*- C++ -*----------------------------------*\
  =========                 |
  \\      /  F ield         | OpenFOAM: The Open Source CFD Toolbox
   \\    /   O peration     | Website:  https://openfoam.org
    \\  /    A nd           | Version:  7
     \\/     M anipulation  |
\*---------------------------------------------------------------------------*/
FoamFile
{
    version     2.0;
    format      ascii;
    class       surfaceScalarField;
    location    "20";
    object      phi;
}
// * * * * * * * * * * * * * * * * * * * * * * * * * * * * * * * * * * * * * //

dimensions      [0 3 -1 0 0 0 0];

internalField   nonuniform List<scalar> 
5143
(
0.00418974
-2.50751e-05
0.00421454
-2.47985e-05
0.00423906
-2.45195e-05
0.0042633
-2.42385e-05
0.00428725
-2.39555e-05
0.00431092
-2.36707e-05
0.00433431
-2.33843e-05
0.0043574
-2.30963e-05
0.0043802
-2.28071e-05
0.00440271
-2.25167e-05
0.00442493
-2.22254e-05
0.00444685
-2.19333e-05
0.00446848
-2.16406e-05
0.00448981
-2.13475e-05
0.00451085
-2.10543e-05
0.0045316
-2.0761e-05
0.00455204
-2.04679e-05
0.0045722
-2.01753e-05
0.00459205
-1.98833e-05
0.00461162
-1.95921e-05
0.00463089
-1.93021e-05
0.00464987
-1.90134e-05
0.00466856
-1.87264e-05
0.00468696
-1.84412e-05
0.00470508
-1.81582e-05
0.00472292
-1.78778e-05
0.00474047
-1.76003e-05
0.00475775
-1.7326e-05
0.00477475
-1.70554e-05
0.00479149
-1.67889e-05
0.00480797
-1.65271e-05
0.00482419
-1.62705e-05
0.00484015
-1.60198e-05
0.00485587
-1.57756e-05
0.00487136
-1.55386e-05
0.00488662
-1.53098e-05
0.00490166
-1.50901e-05
0.0049165
-1.48805e-05
0.00493114
-1.46821e-05
0.0049456
-1.44962e-05
0.0049599
-1.43241e-05
0.00497405
-1.41672e-05
0.00498807
-1.4027e-05
0.00500197
-1.39051e-05
0.00501578
-1.38029e-05
0.00502953
-1.37222e-05
0.00504323
-1.36641e-05
0.00505692
-1.36304e-05
0.00507061
-1.36205e-05
0.00508434
-1.36386e-05
0.00509812
-1.36749e-05
-1.08143e-07
0.005112
-1.37507e-05
-1.27704e-07
0.00512596
-1.38079e-05
-1.47714e-07
0.0051401
-1.3975e-05
-1.6805e-07
0.00515421
-1.39225e-05
-1.87948e-07
0.00516882
-1.44006e-05
-2.08062e-07
-1.34991e-05
-2.24899e-07
0.00419906
-4.99534e-05
0.00422366
-4.94029e-05
0.00424799
-4.88478e-05
0.00427204
-4.82883e-05
0.00429581
-4.77247e-05
0.0043193
-4.71575e-05
0.0043425
-4.65868e-05
0.00436542
-4.60131e-05
0.00438805
-4.54366e-05
0.00441039
-4.48577e-05
0.00443244
-4.42767e-05
0.0044542
-4.36941e-05
0.00447567
-4.31102e-05
0.00449685
-4.25253e-05
0.00451773
-4.19399e-05
0.00453832
-4.13544e-05
0.00455863
-4.07691e-05
0.00457864
-4.01846e-05
0.00459835
-3.96012e-05
0.00461778
-3.90195e-05
0.00463692
-3.844e-05
0.00465577
-3.7863e-05
0.00467433
-3.72893e-05
0.00469261
-3.67194e-05
0.0047106
-3.61539e-05
0.00472832
-3.55936e-05
0.00474576
-3.50391e-05
0.00476292
-3.44913e-05
0.00477982
-3.39511e-05
0.00479645
-3.34195e-05
0.00481282
-3.28974e-05
0.00482894
-3.23862e-05
0.0048448
-3.18871e-05
0.00486043
-3.14016e-05
0.00487582
-3.09314e-05
0.00489099
-3.0478e-05
0.00490595
-3.00437e-05
0.00492069
-2.96304e-05
0.00493525
-2.92404e-05
0.00494963
-2.88765e-05
0.00496385
-2.85412e-05
0.00497792
-2.82374e-05
0.00499186
-2.79683e-05
0.00500569
-2.77369e-05
0.00501944
-2.75463e-05
0.00503311
-2.73998e-05
0.00504675
-2.72997e-05
0.00506037
-2.72498e-05
0.005074
-2.72484e-05
0.00508766
-2.73041e-05
0.00510139
-2.7397e-05
0.0051152
-2.75697e-05
0.0051291
-2.77055e-05
0.00514319
-2.80615e-05
0.00515724
-2.79783e-05
0.0051718
-2.89553e-05
-2.71764e-05
0.0042176
-7.44346e-05
0.00424181
-7.36171e-05
0.00426576
-7.27926e-05
0.00428943
-7.19616e-05
0.00431283
-7.11243e-05
0.00433595
-7.02814e-05
0.0043588
-6.94333e-05
0.00438137
-6.85804e-05
0.00440365
-6.77234e-05
0.00442566
-6.68626e-05
0.00444738
-6.59986e-05
0.00446882
-6.5132e-05
0.00448997
-6.42634e-05
0.00451084
-6.33932e-05
0.00453142
-6.25221e-05
0.00455172
-6.16507e-05
0.00457173
-6.07796e-05
0.00459145
-5.99096e-05
0.00461089
-5.90411e-05
0.00463005
-5.8175e-05
0.00464892
-5.7312e-05
0.00466751
-5.64529e-05
0.00468582
-5.55986e-05
0.00470385
-5.47499e-05
0.0047216
-5.39079e-05
0.00473908
-5.30734e-05
0.00475629
-5.22478e-05
0.00477323
-5.14322e-05
0.00478991
-5.0628e-05
0.00480633
-4.98367e-05
0.00482249
-4.906e-05
0.0048384
-4.82995e-05
0.00485407
-4.75575e-05
0.00486951
-4.68359e-05
0.00488471
-4.61375e-05
0.0048997
-4.54647e-05
0.00491448
-4.48206e-05
0.00492906
-4.42084e-05
0.00494345
-4.36317e-05
0.00495766
-4.30943e-05
0.00497172
-4.26003e-05
0.00498564
-4.21541e-05
0.00499943
-4.17602e-05
0.00501312
-4.14234e-05
0.00502672
-4.11483e-05
0.00504026
-4.09399e-05
0.00505376
-4.08015e-05
0.00506725
-4.07387e-05
0.00508075
-4.07492e-05
0.00509429
-4.08456e-05
0.0051079
-4.09982e-05
0.0051216
-4.12708e-05
0.00513538
-4.14879e-05
0.00514935
-4.20357e-05
0.0051633
-4.19252e-05
0.00517775
-4.34026e-05
-4.07608e-05
0.00424516
-9.83274e-05
0.00426879
-9.72532e-05
0.00429217
-9.61695e-05
0.00431528
-9.50769e-05
0.00433814
-9.3976e-05
0.00436072
-9.28675e-05
0.00438304
-9.17519e-05
0.00440509
-9.06299e-05
0.00442687
-8.95022e-05
0.00444838
-8.83693e-05
0.00446961
-8.72321e-05
0.00449057
-8.60913e-05
0.00451125
-8.49476e-05
0.00453166
-8.38017e-05
0.00455179
-8.26545e-05
0.00457165
-8.15067e-05
0.00459123
-8.03592e-05
0.00461053
-7.92129e-05
0.00462956
-7.80685e-05
0.00464831
-7.69273e-05
0.00466679
-7.579e-05
0.00468499
-7.46578e-05
0.00470293
-7.35317e-05
0.00472059
-7.24131e-05
0.00473799
-7.13032e-05
0.00475512
-7.02033e-05
0.00477198
-6.91151e-05
0.00478859
-6.80402e-05
0.00480494
-6.69804e-05
0.00482104
-6.59377e-05
0.0048369
-6.49143e-05
0.00485251
-6.39127e-05
0.00486789
-6.29356e-05
0.00488304
-6.19858e-05
0.00489797
-6.10668e-05
0.00491269
-6.0182e-05
0.0049272
-5.93356e-05
0.00494153
-5.85317e-05
0.00495567
-5.77753e-05
0.00496965
-5.70713e-05
0.00498347
-5.64252e-05
0.00499716
-5.5843e-05
0.00501073
-5.53306e-05
0.0050242
-5.48945e-05
0.00503759
-5.45408e-05
0.00505093
-5.4276e-05
0.00506423
-5.41046e-05
0.00507753
-5.40341e-05
0.00509084
-5.40613e-05
0.0051042
-5.42033e-05
0.00511762
-5.44198e-05
0.00513115
-5.47968e-05
0.00514476
-5.50994e-05
0.00515856
-5.58432e-05
0.00517235
-5.57106e-05
0.00518664
-5.76905e-05
-5.42076e-05
0.00428144
-0.000121449
0.00430432
-0.000120131
0.00432695
-0.000118802
0.00434934
-0.000117461
0.00437147
-0.00011611
0.00439335
-0.000114748
0.00441498
-0.000113378
0.00443635
-0.000112
0.00445746
-0.000110615
0.00447831
-0.000109223
0.00449891
-0.000107825
0.00451924
-0.000106423
0.00453931
-0.000105017
0.00455911
-0.000103608
0.00457866
-0.000102197
0.00459793
-0.000100785
0.00461695
-9.93734e-05
0.0046357
-9.7963e-05
0.00465418
-9.65549e-05
0.00467241
-9.51505e-05
0.00469037
-9.37508e-05
0.00470807
-9.23572e-05
0.00472551
-9.09712e-05
0.00474269
-8.95942e-05
0.00475961
-8.82279e-05
0.00477628
-8.6874e-05
0.0047927
-8.55344e-05
0.00480887
-8.42113e-05
0.0048248
-8.29068e-05
0.00484049
-8.16236e-05
0.00485594
-8.03643e-05
0.00487116
-7.9132e-05
0.00488615
-7.79301e-05
0.00490093
-7.67624e-05
0.00491549
-7.56328e-05
0.00492986
-7.45459e-05
0.00494403
-7.35068e-05
0.00495802
-7.25207e-05
0.00497184
-7.15937e-05
0.0049855
-7.07321e-05
0.00499901
-6.99427e-05
0.0050124
-6.9233e-05
0.00502568
-6.86104e-05
0.00503887
-6.80829e-05
0.00505199
-6.76581e-05
0.00506506
-6.73443e-05
0.0050781
-6.7147e-05
0.00509114
-6.70756e-05
0.00510421
-6.71259e-05
0.00511732
-6.73196e-05
0.00513051
-6.76059e-05
0.00514381
-6.80932e-05
0.00515719
-6.84866e-05
0.00517078
-6.9432e-05
0.00518435
-6.92841e-05
0.00519843
-7.17691e-05
-6.74734e-05
0.00432607
-0.000143628
0.00434802
-0.000142083
0.00436974
-0.000140523
0.00439123
-0.00013895
0.00441249
-0.000137365
0.00443351
-0.000135767
0.00445429
-0.000134159
0.00447483
-0.00013254
0.00449512
-0.000130913
0.00451518
-0.000129277
0.00453499
-0.000127635
0.00455455
-0.000125986
0.00457387
-0.000124333
0.00459294
-0.000122676
0.00461176
-0.000121017
0.00463033
-0.000119356
0.00464865
-0.000117695
0.00466672
-0.000116036
0.00468455
-0.000114379
0.00470212
-0.000112726
0.00471945
-0.000111078
0.00473653
-0.000109438
0.00475337
-0.000107806
0.00476996
-0.000106185
0.0047863
-0.000104576
0.00480241
-0.000102982
0.00481828
-0.000101405
0.00483392
-9.98473e-05
0.00484932
-9.83116e-05
0.0048645
-9.6801e-05
0.00487946
-9.53189e-05
0.00489419
-9.38689e-05
0.00490872
-9.2455e-05
0.00492304
-9.10816e-05
0.00493716
-8.97538e-05
0.00495109
-8.84768e-05
0.00496484
-8.72568e-05
0.00497842
-8.61001e-05
0.00499184
-8.50138e-05
0.00500511
-8.40056e-05
0.00501825
-8.30837e-05
0.00503128
-8.22569e-05
0.0050442
-8.15341e-05
0.00505704
-8.0925e-05
0.00506982
-8.04385e-05
0.00508256
-8.00847e-05
0.00509529
-7.987e-05
0.00510802
-7.9806e-05
0.00512078
-7.98872e-05
0.0051336
-8.01402e-05
0.0051465
-8.05033e-05
0.00515951
-8.11081e-05
0.00517262
-8.15989e-05
0.00518594
-8.27527e-05
0.00519926
-8.25978e-05
0.00521308
-8.5591e-05
-8.05175e-05
0.00437857
-0.000164705
0.00439944
-0.000162952
0.0044201
-0.000161181
0.00444054
-0.000159395
0.00446077
-0.000157593
0.00448078
-0.000155778
0.00450057
-0.000153949
0.00452014
-0.000152109
0.00453949
-0.000150258
0.00455861
-0.000148397
0.0045775
-0.000146528
0.00459617
-0.000144652
0.0046146
-0.00014277
0.00463281
-0.000140883
0.00465079
-0.000138993
0.00466853
-0.000137101
0.00468604
-0.000135208
0.00470332
-0.000133317
0.00472037
-0.000131428
0.00473719
-0.000129544
0.00475378
-0.000127666
0.00477014
-0.000125795
0.00478626
-0.000123934
0.00480216
-0.000122085
0.00481784
-0.000120251
0.00483329
-0.000118433
0.00484852
-0.000116634
0.00486353
-0.000114857
0.00487832
-0.000113106
0.0048929
-0.000111384
0.00490728
-0.000109694
0.00492145
-0.000108041
0.00493543
-0.00010643
0.00494921
-0.000104866
0.00496281
-0.000103354
0.00497623
-0.000101901
0.00498949
-0.000100514
0.00500259
-9.92001e-05
0.00501555
-9.79678e-05
0.00502837
-9.68259e-05
0.00504107
-9.5784e-05
0.00505366
-9.48522e-05
0.00506617
-9.40411e-05
0.0050786
-9.33617e-05
0.00509099
-9.28245e-05
0.00510335
-9.24412e-05
0.0051157
-9.22192e-05
0.00512806
-9.21722e-05
0.00514047
-9.22934e-05
0.00515294
-9.26147e-05
0.0051655
-9.30628e-05
0.00517819
-9.37934e-05
0.00519098
-9.43892e-05
0.00520399
-9.57595e-05
0.00521699
-9.56072e-05
0.00523052
-9.91123e-05
-9.33021e-05
0.00443839
-0.000184539
0.00445804
-0.000182598
0.00447749
-0.000180638
0.00449676
-0.000178659
0.00451583
-0.000176663
0.0045347
-0.00017465
0.00455337
-0.000172623
0.00457185
-0.000170581
0.00459011
-0.000168527
0.00460818
-0.000166461
0.00462604
-0.000164386
0.00464369
-0.000162302
0.00466113
-0.000160211
0.00467836
-0.000158114
0.00469538
-0.000156013
0.00471219
-0.00015391
0.00472879
-0.000151806
0.00474517
-0.000149702
0.00476135
-0.000147601
0.00477731
-0.000145505
0.00479305
-0.000143415
0.00480859
-0.000141333
0.00482392
-0.000139262
0.00483904
-0.000137204
0.00485395
-0.000135162
0.00486866
-0.000133138
0.00488316
-0.000131136
0.00489746
-0.000129158
0.00491156
-0.000127209
0.00492547
-0.000125292
0.00493919
-0.000123412
0.00495272
-0.000121574
0.00496607
-0.000119782
0.00497925
-0.000118044
0.00499226
-0.000116364
0.00500511
-0.000114751
0.00501781
-0.000113213
0.00503037
-0.000111757
0.0050428
-0.000110394
0.0050551
-0.000109133
0.0050673
-0.000107985
0.00507941
-0.000106962
0.00509145
-0.000106076
0.00510343
-0.000105339
0.00511537
-0.000104764
0.00512729
-0.000104363
0.00513921
-0.000104145
0.00515117
-0.000104126
0.00516317
-0.000104298
0.00517525
-0.000104697
0.00518743
-0.000105239
0.00519974
-0.000106106
0.00521217
-0.000106815
0.00522482
-0.000108411
0.00523748
-0.000108272
0.00525066
-0.000112293
-0.000105792
0.00450491
-0.000203004
0.00452321
-0.0002009
0.00454134
-0.000198773
0.00455931
-0.000196624
0.0045771
-0.000194456
0.00459472
-0.000192269
0.00461216
-0.000190065
0.00462943
-0.000187845
0.00464651
-0.00018561
0.00466341
-0.000183362
0.00468013
-0.000181103
0.00469666
-0.000178834
0.00471301
-0.000176556
0.00472916
-0.000174271
0.00474513
-0.000171981
0.00476091
-0.000169688
0.0047765
-0.000167394
0.00479189
-0.000165099
0.0048071
-0.000162808
0.00482212
-0.00016052
0.00483694
-0.000158239
0.00485157
-0.000155967
0.00486602
-0.000153707
0.00488028
-0.00015146
0.00489435
-0.000149231
0.00490823
-0.000147022
0.00492193
-0.000144836
0.00493545
-0.000142677
0.00494879
-0.00014055
0.00496195
-0.000138458
0.00497495
-0.000136406
0.00498777
-0.000134401
0.00500044
-0.000132448
0.00501295
-0.000130553
0.00502531
-0.000128724
0.00503753
-0.000126968
0.00504961
-0.000125296
0.00506157
-0.000123715
0.00507341
-0.000122237
0.00508515
-0.000120873
0.0050968
-0.000119636
0.00510837
-0.000118537
0.00511989
-0.00011759
0.00513136
-0.00011681
0.00514281
-0.00011621
0.00515425
-0.000115805
0.00516571
-0.000115604
0.00517721
-0.000115625
0.00518877
-0.000115858
0.00520042
-0.000116347
0.00521217
-0.000116994
0.00522407
-0.000118006
0.00523609
-0.000118838
0.00524835
-0.000120669
0.00526064
-0.000120556
0.00527344
-0.000125097
-0.000117958
0.00457744
-0.000219996
0.00459429
-0.000217752
0.004611
-0.000215482
0.00462756
-0.000213189
0.00464398
-0.000210874
0.00466025
-0.000208537
0.00467637
-0.000206181
0.00469233
-0.000203806
0.00470813
-0.000201415
0.00472378
-0.000199009
0.00473926
-0.000196589
0.00475459
-0.000194158
0.00476975
-0.000191718
0.00478475
-0.000189269
0.00479958
-0.000186813
0.00481424
-0.000184354
0.00482874
-0.000181892
0.00484307
-0.00017943
0.00485724
-0.00017697
0.00487123
-0.000174515
0.00488506
-0.000172066
0.00489872
-0.000169626
0.00491221
-0.000167198
0.00492553
-0.000164785
0.00493869
-0.00016239
0.00495169
-0.000160017
0.00496452
-0.000157669
0.00497719
-0.000155351
0.00498971
-0.000153066
0.00500207
-0.00015082
0.00501428
-0.000148618
0.00502635
-0.000146466
0.00503827
-0.00014437
0.00505006
-0.000142339
0.00506171
-0.00014038
0.00507325
-0.000138501
0.00508466
-0.000136713
0.00509597
-0.000135026
0.00510719
-0.000133451
0.00511831
-0.000132002
0.00512937
-0.000130691
0.00514037
-0.000129532
0.00515132
-0.000128542
0.00516224
-0.000127734
0.00517315
-0.000127124
0.00518408
-0.000126729
0.00519503
-0.000126557
0.00520604
-0.000126632
0.00521712
-0.000126939
0.0052283
-0.000127529
0.0052396
-0.000128291
0.00525105
-0.000129461
0.00526264
-0.000130426
0.00527448
-0.000132503
0.00528635
-0.000132429
0.00529875
-0.000137494
-0.000129773
0.00465524
-0.000235428
0.00467056
-0.00023307
0.00468576
-0.000230685
0.00470084
-0.000228272
0.0047158
-0.000225835
0.00473064
-0.000223374
0.00474535
-0.000220891
0.00475993
-0.000218388
0.00477438
-0.000215865
0.0047887
-0.000213326
0.00480288
-0.000210772
0.00481693
-0.000208204
0.00483084
-0.000205625
0.00484461
-0.000203037
0.00485823
-0.000200441
0.00487172
-0.00019784
0.00488506
-0.000195235
0.00489826
-0.00019263
0.00491132
-0.000190026
0.00492423
-0.000187426
0.004937
-0.000184833
0.00494962
-0.000182249
0.0049621
-0.000179677
0.00497444
-0.000177121
0.00498663
-0.000174585
0.00499868
-0.00017207
0.0050106
-0.000169583
0.00502237
-0.000167127
0.00503401
-0.000164707
0.00504552
-0.000162329
0.0050569
-0.000159998
0.00506816
-0.000157721
0.00507929
-0.000155505
0.00509031
-0.000153358
0.00510122
-0.000151289
0.00511203
-0.000149307
0.00512274
-0.000147423
0.00513336
-0.000145649
0.00514391
-0.000143996
0.00515438
-0.00014248
0.00516481
-0.000141114
0.00517519
-0.000139914
0.00518554
-0.000138896
0.00519588
-0.000138077
0.00520623
-0.000137473
0.00521661
-0.000137102
0.00522702
-0.000136975
0.00523751
-0.000137117
0.00524808
-0.00013751
0.00525877
-0.000138215
0.00526958
-0.000139104
0.00528056
-0.000140443
0.00529169
-0.000141551
0.00530307
-0.000143887
0.00531451
-0.000143864
0.00532647
-0.000149459
-0.000141214
0.00473753
-0.000249237
0.00475125
-0.000246793
0.00476488
-0.000244317
0.00477842
-0.000241813
0.00479187
-0.00023928
0.00480521
-0.000236721
0.00481846
-0.000234138
0.0048316
-0.000231531
0.00484464
-0.000228904
0.00485757
-0.000226258
0.0048704
-0.000223595
0.00488311
-0.000220917
0.00489571
-0.000218225
0.0049082
-0.000215523
0.00492057
-0.000212812
0.00493282
-0.000210094
0.00494496
-0.000207372
0.00495698
-0.000204649
0.00496888
-0.000201926
0.00498066
-0.000199207
0.00499232
-0.000196494
0.00500386
-0.000193791
0.00501529
-0.0001911
0.00502659
-0.000188425
0.00503777
-0.00018577
0.00504884
-0.000183139
0.0050598
-0.000180536
0.00507064
-0.000177966
0.00508136
-0.000175435
0.00509198
-0.000172947
0.00510249
-0.00017051
0.0051129
-0.00016813
0.00512321
-0.000165815
0.00513343
-0.000163575
0.00514356
-0.000161417
0.00515361
-0.000159353
0.00516358
-0.000157395
0.00517348
-0.000155553
0.00518333
-0.000153843
0.00519313
-0.000152279
0.00520289
-0.000150877
0.00521263
-0.000149653
0.00522236
-0.000148626
0.0052321
-0.000147813
0.00524186
-0.000147231
0.00525165
-0.000146901
0.00526151
-0.000146834
0.00527145
-0.000147057
0.00528149
-0.000147551
0.00529166
-0.000148383
0.00530197
-0.00014941
0.00531246
-0.000150932
0.0053231
-0.000152194
0.00533401
-0.000154801
0.00534499
-0.000154844
0.00535651
-0.000160971
-0.000152267
0.00482348
0.00483557
-0.000258878
0.00484759
-0.00025634
0.00485954
-0.000253769
0.00487143
-0.000251168
0.00488325
-0.000248538
0.00489499
-0.000245881
0.00490666
-0.000243199
0.00491825
-0.000240493
0.00492976
-0.000237767
0.00494118
-0.000235021
0.00495252
-0.000232258
0.00496378
-0.000229481
0.00497495
-0.000226691
0.00498603
-0.000223891
0.00499701
-0.000221083
0.00500791
-0.000218269
0.00501872
-0.000215453
0.00502943
-0.000212638
0.00504004
-0.000209825
0.00505057
-0.000207018
0.005061
-0.00020422
0.00507133
-0.000201435
0.00508157
-0.000198666
0.00509172
-0.000195918
0.00510178
-0.000193194
0.00511174
-0.0001905
0.00512161
-0.00018784
0.0051314
-0.000185221
0.0051411
-0.000182647
0.00515072
-0.000180127
0.00516026
-0.000177668
0.00516972
-0.000175278
0.00517911
-0.000172966
0.00518843
-0.000170742
0.0051977
-0.000168618
0.00520691
-0.000166606
0.00521608
-0.000164719
0.0052252
-0.000162972
0.00523431
-0.00016138
0.00524339
-0.000159961
0.00525247
-0.000158733
0.00526156
-0.000157714
0.00527067
-0.000156924
0.00527982
-0.000156382
0.00528903
-0.000156109
0.00529831
-0.000156117
0.00530769
-0.000156436
0.00531718
-0.000157044
0.00532682
-0.000158018
0.00533661
-0.000159196
0.00534659
-0.000160913
0.00535673
-0.000162341
0.00536716
-0.00016523
0.00537767
-0.000165353
0.00538872
-0.000172019
-0.000162919
0.00492269
-0.000269306
0.00493308
-0.000266732
0.00494343
-0.000264122
0.00495374
-0.000261479
0.00496401
-0.000258805
0.00497423
-0.000256101
0.0049844
-0.00025337
0.00499452
-0.000250612
0.00500459
-0.000247832
0.0050146
-0.00024503
0.00502455
-0.00024221
0.00503444
-0.000239373
0.00504427
-0.000236521
0.00505404
-0.000233658
0.00506374
-0.000230786
0.00507338
-0.000227907
0.00508295
-0.000225025
0.00509245
-0.000222142
0.00510189
-0.000219261
0.00511126
-0.000216385
0.00512056
-0.000213519
0.00512979
-0.000210665
0.00513895
-0.000207828
0.00514804
-0.000205011
0.00515707
-0.00020222
0.00516603
-0.000199459
0.00517492
-0.000196734
0.00518375
-0.000194051
0.00519252
-0.000191416
0.00520123
-0.000188837
0.00520988
-0.000186321
0.00521848
-0.000183879
0.00522703
-0.000181519
0.00523554
-0.000179251
0.00524401
-0.000177089
0.00525245
-0.000175046
0.00526087
-0.000173134
0.00526927
-0.000171371
0.00527766
-0.000169772
0.00528605
-0.000168356
0.00529446
-0.000167143
0.0053029
-0.000166151
0.00531138
-0.000165403
0.00531991
-0.000164917
0.00532852
-0.000164718
0.00533722
-0.000164817
0.00534603
-0.000165248
0.00535497
-0.000165984
0.00536407
-0.000167113
0.00537333
-0.000168454
0.00538279
-0.00017038
0.00539244
-0.000171983
0.00540237
-0.000175169
0.00541241
-0.000175386
0.00542298
-0.000182594
-0.000173166
0.00501178
-0.000278079
0.00502054
-0.000275496
0.00502929
-0.000272874
0.00503803
-0.000270216
0.00504675
-0.000267523
0.00505544
-0.000264799
0.00506412
-0.000262044
0.00507277
-0.000259262
0.00508139
-0.000256454
0.00508998
-0.000253622
0.00509854
-0.00025077
0.00510707
-0.000247899
0.00511556
-0.000245013
0.00512401
-0.000242113
0.00513243
-0.000239202
0.00514081
-0.000236284
0.00514914
-0.000233361
0.00515744
-0.000230436
0.00516569
-0.000227513
0.0051739
-0.000224595
0.00518207
-0.000221685
0.00519019
-0.000218787
0.00519827
-0.000215906
0.0052063
-0.000213047
0.0052143
-0.000210213
0.00522225
-0.00020741
0.00523016
-0.000204644
0.00523803
-0.000201922
0.00524586
-0.00019925
0.00525366
-0.000196635
0.00526143
-0.000194088
0.00526916
-0.000191616
0.00527688
-0.000189231
0.00528457
-0.000186943
0.00529224
-0.000184765
0.00529991
-0.000182712
0.00530757
-0.000180798
0.00531524
-0.000179039
0.00532292
-0.000177454
0.00533063
-0.000176061
0.00533837
-0.000174882
0.00534615
-0.000173936
0.005354
-0.000173248
0.00536192
-0.000172836
0.00536993
-0.000172728
0.00537804
-0.000172933
0.00538629
-0.000173491
0.00539467
-0.000174369
0.00540323
-0.000175668
0.00541196
-0.000177183
0.00542091
-0.000179332
0.00543005
-0.000181122
0.00543949
-0.000184617
0.00544905
-0.000184942
0.00545915
-0.000192697
-0.000183007
0.005102
-0.000285221
0.00510916
-0.000282654
0.00511633
-0.000280045
0.00512351
-0.000277397
0.0051307
-0.000274713
0.00513789
-0.000271993
0.00514509
-0.000269241
0.00515229
-0.000266459
0.00515948
-0.000263649
0.00516668
-0.000260814
0.00517386
-0.000257955
0.00518104
-0.000255077
0.00518821
-0.00025218
0.00519536
-0.000249269
0.00520251
-0.000246346
0.00520963
-0.000243414
0.00521675
-0.000240475
0.00522385
-0.000237534
0.00523093
-0.000234594
0.00523799
-0.000231658
0.00524504
-0.00022873
0.00525206
-0.000225814
0.00525907
-0.000222914
0.00526606
-0.000220036
0.00527303
-0.000217184
0.00527998
-0.000214364
0.00528692
-0.000211581
0.00529384
-0.000208844
0.00530075
-0.000206158
0.00530765
-0.000203533
0.00531454
-0.000200977
0.00532142
-0.000198499
0.0053283
-0.000196111
0.00533518
-0.000193826
0.00534207
-0.000191655
0.00534898
-0.000189614
0.0053559
-0.000187718
0.00536284
-0.000185985
0.00536982
-0.000184434
0.00537685
-0.000183085
0.00538392
-0.000181959
0.00539107
-0.000181079
0.00539829
-0.000180468
0.0054056
-0.000180147
0.00541302
-0.000180147
0.00542056
-0.000180474
0.00542824
-0.000181174
0.00543608
-0.000182208
0.0054441
-0.000183691
0.00545231
-0.000185393
0.00546076
-0.000187778
0.0054694
-0.000189763
0.00547837
-0.000193583
0.00548745
-0.000194028
0.00549709
-0.000202334
-0.000192449
0.00519252
-0.000290775
0.00519812
-0.000288248
0.00520375
-0.000285678
0.00520942
-0.000283065
0.00521512
-0.000280413
0.00522085
-0.000277723
0.00522661
-0.000274998
0.00523239
-0.000272241
0.00523819
-0.000269454
0.00524402
-0.000266639
0.00524986
-0.000263799
0.00525572
-0.000260937
0.0052616
-0.000258056
0.00526749
-0.000255158
0.00527339
-0.000252247
0.0052793
-0.000249325
0.00528522
-0.000246396
0.00529115
-0.000243464
0.00529708
-0.000240531
0.00530303
-0.000237601
0.00530898
-0.000234679
0.00531493
-0.000231769
0.00532089
-0.000228875
0.00532686
-0.000226003
0.00533283
-0.000223157
0.00533881
-0.000220343
0.0053448
-0.000217568
0.00535079
-0.00021484
0.0053568
-0.000212164
0.00536282
-0.000209551
0.00536885
-0.000207009
0.0053749
-0.000204548
0.00538097
-0.000202181
0.00538706
-0.000199919
0.00539319
-0.000197777
0.00539934
-0.00019577
0.00540554
-0.000193915
0.00541178
-0.000192229
0.00541808
-0.000190732
0.00542444
-0.000189446
0.00543088
-0.000188393
0.00543739
-0.000187596
0.00544401
-0.000187081
0.00545073
-0.000186869
0.00545757
-0.000186992
0.00546455
-0.000187456
0.00547169
-0.000188314
0.005479
-0.000189517
0.00548651
-0.000191198
0.00549421
-0.000193097
0.00550217
-0.000195733
0.00551033
-0.000197923
0.00551883
-0.000202081
0.00552745
-0.000202658
0.00553664
-0.000211519
-0.000201504
0.00528254
-0.000294804
0.00528663
-0.000292342
0.00529078
-0.000289832
0.005295
-0.000287277
0.00529926
-0.000284681
0.00530358
-0.000282044
0.00530796
-0.00027937
0.00531238
-0.000276661
0.00531684
-0.000273919
0.00532135
-0.000271149
0.0053259
-0.000268351
0.0053305
-0.000265529
0.00533513
-0.000262687
0.00533979
-0.000259826
0.0053445
-0.00025695
0.00534924
-0.000254063
0.00535401
-0.000251167
0.00535881
-0.000248266
0.00536364
-0.000245364
0.00536851
-0.000242465
0.0053734
-0.000239573
0.00537832
-0.000236692
0.00538328
-0.000233828
0.00538826
-0.000230984
0.00539327
-0.000228168
0.00539831
-0.000225384
0.00540338
-0.00022264
0.00540848
-0.000219943
0.00541362
-0.0002173
0.00541879
-0.000214722
0.005424
-0.000212216
0.00542925
-0.000209796
0.00543453
-0.000207471
0.00543987
-0.000205255
0.00544526
-0.000203163
0.0054507
-0.000201211
0.0054562
-0.000199416
0.00546177
-0.000197797
0.00546741
-0.000196375
0.00547314
-0.000195171
0.00547895
-0.00019421
0.00548487
-0.000193514
0.0054909
-0.000193113
0.00549706
-0.000193025
0.00550336
-0.000193289
0.00550981
-0.000193905
0.00551643
-0.000194935
0.00552323
-0.000196319
0.00553024
-0.000198212
0.00553747
-0.000200319
0.00554495
-0.00020322
0.00555265
-0.000205622
0.0055607
-0.000210132
0.0055689
-0.000210851
0.00557765
-0.000220273
-0.000210192
0.00537125
-0.00029739
0.00537392
-0.000295012
0.00537667
-0.000292585
0.0053795
-0.00029011
0.00538241
-0.000287591
0.0053854
-0.000285029
0.00538846
-0.000282427
0.00539158
-0.000279788
0.00539478
-0.000277115
0.00539804
-0.00027441
0.00540137
-0.000271677
0.00540475
-0.000268917
0.0054082
-0.000266135
0.00541171
-0.000263334
0.00541528
-0.000260516
0.0054189
-0.000257685
0.00542258
-0.000254844
0.00542631
-0.000251998
0.00543009
-0.00024915
0.00543393
-0.000246304
0.00543782
-0.000243464
0.00544177
-0.000240635
0.00544576
-0.000237821
0.0054498
-0.00023503
0.0054539
-0.000232265
0.00545805
-0.000229533
0.00546225
-0.000226842
0.00546651
-0.000224199
0.00547082
-0.000221611
0.00547519
-0.000219089
0.00547962
-0.000216643
0.0054841
-0.000214283
0.00548865
-0.000212022
0.00549327
-0.000209873
0.00549796
-0.000207853
0.00550273
-0.000205976
0.00550757
-0.000204262
0.0055125
-0.00020273
0.00551753
-0.000201401
0.00552266
-0.000200298
0.00552789
-0.000199446
0.00553325
-0.000198869
0.00553873
-0.000198598
0.00554436
-0.000198652
0.00555014
-0.000199071
0.00555609
-0.000199854
0.00556223
-0.00020107
0.00556855
-0.000202648
0.00557511
-0.000204766
0.00558188
-0.000207089
0.00558893
-0.000210268
0.00559619
-0.000212889
0.00560383
-0.000217767
0.00561161
-0.000218636
0.00561996
-0.000228624
-0.000218536
0.0054579
0.00545925
-0.000296355
0.00546069
-0.00029403
0.00546224
-0.000291655
0.00546388
-0.000289233
0.00546562
-0.000286765
0.00546744
-0.000284256
0.00546936
-0.000281707
0.00547137
-0.000279122
0.00547347
-0.000276504
0.00547564
-0.000273855
0.00547791
-0.000271179
0.00548025
-0.000268478
0.00548267
-0.000265756
0.00548517
-0.000263017
0.00548775
-0.000260264
0.00549041
-0.000257499
0.00549314
-0.000254728
0.00549594
-0.000251955
0.00549882
-0.000249182
0.00550177
-0.000246416
0.0055048
-0.00024366
0.0055079
-0.00024092
0.00551107
-0.0002382
0.00551431
-0.000235509
0.00551763
-0.00023285
0.00552102
-0.000230233
0.00552448
-0.000227665
0.00552803
-0.000225153
0.00553164
-0.000222709
0.00553534
-0.000220341
0.00553912
-0.000218063
0.00554299
-0.000215886
0.00554694
-0.000213825
0.00555098
-0.000211895
0.00555512
-0.000210113
0.00555936
-0.000208499
0.0055637
-0.000207072
0.00556815
-0.000205855
0.00557273
-0.000204871
0.00557743
-0.000204147
0.00558226
-0.000203706
0.00558725
-0.000203581
0.00559238
-0.000203791
0.00559769
-0.00020438
0.00560318
-0.000205342
0.00560887
-0.000206759
0.00561477
-0.000208541
0.0056209
-0.000210898
0.00562725
-0.000213445
0.0056339
-0.000216917
0.00564077
-0.000219761
0.00564803
-0.000225022
0.00565544
-0.000226046
0.00566342
-0.000236608
-0.000226568
0.00554191
-0.00029648
0.00554216
-0.000294275
0.00554252
-0.000292017
0.005543
-0.00028971
0.00554359
-0.000287355
0.00554429
-0.000284956
0.0055451
-0.000282516
0.00554601
-0.000280038
0.00554703
-0.000277525
0.00554816
-0.000274979
0.00554938
-0.000272404
0.00555071
-0.000269804
0.00555213
-0.000267181
0.00555366
-0.000264539
0.00555528
-0.000261883
0.00555699
-0.000259214
0.0055588
-0.000256538
0.0055607
-0.000253858
0.0055627
-0.000251179
0.00556479
-0.000248506
0.00556697
-0.000245842
0.00556925
-0.000243195
0.00557162
-0.000240568
0.00557408
-0.000237969
0.00557663
-0.000235404
0.00557928
-0.000232881
0.00558202
-0.000230407
0.00558486
-0.000227991
0.00558779
-0.000225643
0.00559083
-0.000223375
0.00559396
-0.000221197
0.0055972
-0.000219124
0.00560054
-0.000217169
0.005604
-0.000215349
0.00560756
-0.000213681
0.00561125
-0.000212185
0.00561506
-0.000210882
0.005619
-0.000209794
0.00562307
-0.000208946
0.00562729
-0.000208365
0.00563166
-0.000208075
0.00563619
-0.000208112
0.00564089
-0.000208492
0.00564578
-0.000209266
0.00565086
-0.000210421
0.00565615
-0.00021205
0.00566165
-0.000214047
0.00566741
-0.000216654
0.0056734
-0.000219433
0.00567969
-0.00022321
0.00568621
-0.00022628
0.00569313
-0.00023194
0.00570021
-0.000233123
0.00570786
-0.000244265
-0.000234324
0.00562127
-0.000295509
0.00562043
-0.000293439
0.00561973
-0.000291315
0.00561915
-0.000289138
0.00561871
-0.000286912
0.00561839
-0.00028464
0.0056182
-0.000282325
0.00561813
-0.00027997
0.00561819
-0.000277577
0.00561836
-0.000275152
0.00561865
-0.000272696
0.00561906
-0.000270213
0.00561959
-0.000267706
0.00562023
-0.000265179
0.00562098
-0.000262636
0.00562185
-0.000260081
0.00562283
-0.000257518
0.00562392
-0.00025495
0.00562512
-0.000252382
0.00562644
-0.00024982
0.00562786
-0.000247267
0.0056294
-0.000244731
0.00563104
-0.000242215
0.0056328
-0.000239727
0.00563467
-0.000237273
0.00563665
-0.000234862
0.00563875
-0.000232501
0.00564095
-0.0002302
0.00564328
-0.000227968
0.00564572
-0.000225816
0.00564828
-0.000223758
0.00565096
-0.000221806
0.00565377
-0.000219975
0.0056567
-0.000218282
0.00565977
-0.000216746
0.00566297
-0.000215385
0.0056663
-0.000214221
0.00566979
-0.00021328
0.00567343
-0.000212583
0.00567722
-0.000212161
0.00568119
-0.000212038
0.00568533
-0.000212251
0.00568965
-0.000212815
0.00569417
-0.000213786
0.00569889
-0.000215144
0.00570384
-0.000216999
0.00570901
-0.000219219
0.00571445
-0.000222089
0.00572012
-0.000225104
0.00572611
-0.0002292
0.00573232
-0.000232496
0.00573896