/*--------------------------------*- C++ -*----------------------------------*\
  =========                 |
  \\      /  F ield         | OpenFOAM: The Open Source CFD Toolbox
   \\    /   O peration     | Website:  https://openfoam.org
    \\  /    A nd           | Version:  7
     \\/     M anipulation  |
\*---------------------------------------------------------------------------*/
FoamFile
{
    version     2.0;
    format      ascii;
    class       volVectorField;
    location    "20";
    object      U;
}
// * * * * * * * * * * * * * * * * * * * * * * * * * * * * * * * * * * * * * //

dimensions      [0 1 -1 0 0 0 0];

internalField   nonuniform List<vector> 
2625
(
(0.624993 -0.00148356 3.31396e-24)
(0.629271 -0.00145269 -9.02669e-23)
(0.633522 -0.00142235 -4.06291e-23)
(0.637747 -0.00139253 -4.1741e-24)
(0.641944 -0.00136324 6.39785e-25)
(0.646115 -0.00133448 5.54074e-23)
(0.650259 -0.00130624 -2.22764e-23)
(0.654376 -0.00127853 5.42939e-23)
(0.658466 -0.00125135 -3.07949e-23)
(0.662529 -0.00122469 -2.83668e-23)
(0.666565 -0.00119856 3.77587e-23)
(0.670574 -0.00117296 -3.42302e-23)
(0.674556 -0.00114788 1.3892e-23)
(0.678511 -0.00112332 -1.82367e-23)
(0.68244 -0.00109928 2.42923e-23)
(0.686343 -0.00107577 -4.70275e-23)
(0.69022 -0.00105277 1.53092e-24)
(0.694071 -0.00103029 4.28993e-23)
(0.697896 -0.00100832 -3.14435e-23)
(0.701696 -0.000986864 -4.96098e-24)
(0.705472 -0.000965922 9.33207e-24)
(0.709223 -0.000945488 1.1065e-23)
(0.712951 -0.000925563 -1.19285e-23)
(0.716655 -0.000906145 1.55494e-24)
(0.720336 -0.000887231 -1.31896e-23)
(0.723996 -0.000868822 -3.50418e-24)
(0.727634 -0.000850918 2.40709e-23)
(0.731252 -0.000833518 4.73422e-24)
(0.73485 -0.000816624 4.44722e-25)
(0.738429 -0.000800237 -1.51695e-23)
(0.741991 -0.000784361 2.14728e-24)
(0.745536 -0.000768999 -2.29385e-24)
(0.749066 -0.000754155 6.86591e-24)
(0.752582 -0.000739838 -3.20171e-24)
(0.756086 -0.000726055 5.69059e-24)
(0.759579 -0.000712816 -1.45307e-24)
(0.763063 -0.000700132 8.84372e-24)
(0.766541 -0.000688017 9.17983e-24)
(0.770014 -0.000676486 -5.29459e-24)
(0.773485 -0.000665557 4.85164e-24)
(0.776957 -0.000655247 -3.49145e-24)
(0.780432 -0.000645578 5.83897e-24)
(0.783914 -0.000636569 -7.17483e-24)
(0.787406 -0.000628243 -1.94733e-24)
(0.790912 -0.000620618 -4.07474e-25)
(0.794435 -0.000613718 9.69246e-25)
(0.797982 -0.000607547 -2.24216e-25)
(0.801554 -0.000602133 2.53223e-24)
(0.805163 -0.000597432 1.87884e-25)
(0.808795 -0.000593533 -9.61062e-25)
(0.8125 -0.000590161 -2.05405e-26)
(0.816179 -0.00058783 -1.24176e-24)
(0.820075 -0.000585092 -6.18409e-26)
(0.823648 -0.000585036 -7.59278e-25)
(0.828125 -0.00057983 2.75944e-25)
(0.830792 -0.000586984 3.88895e-25)
(0.837582 -0.00056254 1.21191e-24)
(0.626669 -0.00444123 -1.699e-22)
(0.630915 -0.00434877 5.2221e-23)
(0.635135 -0.00425787 -1.1801e-22)
(0.639328 -0.00416853 4.9096e-23)
(0.643496 -0.00408075 1.89547e-22)
(0.647636 -0.00399453 -5.77596e-23)
(0.651751 -0.00390987 3.46641e-23)
(0.655838 -0.00382676 -1.27374e-22)
(0.6599 -0.00374522 1.29352e-22)
(0.663934 -0.00366524 -6.13175e-23)
(0.667942 -0.00358681 -5.60947e-23)
(0.671924 -0.00350993 2.55573e-24)
(0.675879 -0.00343461 6.27539e-25)
(0.679809 -0.00336084 -2.99381e-23)
(0.683712 -0.00328862 1.01266e-22)
(0.687589 -0.00321794 -2.52637e-23)
(0.69144 -0.00314881 -8.39298e-23)
(0.695266 -0.00308122 1.3042e-23)
(0.699068 -0.00301516 1.19894e-22)
(0.702844 -0.00295063 4.5664e-24)
(0.706596 -0.00288764 -3.74302e-23)
(0.710324 -0.00282617 -5.64258e-23)
(0.714029 -0.00276624 1.28876e-23)
(0.717711 -0.00270783 -3.42901e-23)
(0.72137 -0.00265096 2.24316e-23)
(0.725008 -0.00259561 1.77026e-23)
(0.728625 -0.00254181 -3.38277e-23)
(0.732222 -0.00248954 1.92523e-23)
(0.7358 -0.00243883 -3.68213e-24)
(0.739359 -0.00238969 -1.72034e-23)
(0.742901 -0.00234213 1.72609e-24)
(0.746427 -0.00229616 2.15243e-23)
(0.749937 -0.00225182 9.41878e-24)
(0.753435 -0.00220912 2.11843e-23)
(0.75692 -0.00216811 -1.99429e-23)
(0.760395 -0.00212881 -2.54823e-24)
(0.763862 -0.00209127 -6.96382e-24)
(0.767322 -0.00205553 1.30753e-23)
(0.770777 -0.00202164 -2.42927e-23)
(0.774231 -0.00198967 6.06241e-24)
(0.777686 -0.00195967 1.64165e-23)
(0.781144 -0.0019317 -1.99962e-23)
(0.78461 -0.00190583 2.04723e-24)
(0.788086 -0.00188212 8.87263e-24)
(0.791576 -0.00186062 3.72174e-24)
(0.795084 -0.0018414 4.85115e-25)
(0.798615 -0.00182447 -1.08767e-24)
(0.802171 -0.00180989 1.02049e-24)
(0.805764 -0.00179753 4.39746e-25)
(0.809381 -0.00178764 1.36281e-24)
(0.813071 -0.00177937 -1.49712e-24)
(0.816735 -0.00177424 3.27981e-25)
(0.820615 -0.00176788 9.52995e-25)
(0.824174 -0.00176954 -5.14679e-26)
(0.828635 -0.00175567 -1.81533e-25)
(0.831291 -0.00177882 -4.33336e-25)
(0.838057 -0.00170697 -4.35028e-24)
(0.630008 -0.00736873 1.16328e-22)
(0.63419 -0.00721558 7.90998e-23)
(0.638347 -0.00706499 1.41151e-22)
(0.642479 -0.00691698 9.19934e-23)
(0.646585 -0.00677153 -3.27031e-22)
(0.650667 -0.00662866 1.76958e-22)
(0.654722 -0.00648836 -2.23875e-22)
(0.658752 -0.00635063 3.35452e-22)
(0.662756 -0.00621547 -1.58124e-22)
(0.666735 -0.00608288 -4.56137e-23)
(0.670688 -0.00595286 1.19879e-22)
(0.674615 -0.00582541 4.14396e-23)
(0.678517 -0.00570052 -1.2951e-22)
(0.682393 -0.00557819 -2.34825e-22)
(0.686245 -0.00545842 1.92773e-23)
(0.690071 -0.0053412 1.99308e-22)
(0.693873 -0.00522653 -1.66327e-22)
(0.69765 -0.00511441 -3.8527e-23)
(0.701402 -0.00500482 4.82764e-23)
(0.705131 -0.00489777 5.30873e-23)
(0.708837 -0.00479326 1.36331e-23)
(0.712519 -0.00469129 6.54604e-23)
(0.716178 -0.00459184 6.55038e-24)
(0.719816 -0.00449494 -7.55131e-23)
(0.723432 -0.00440057 -1.09581e-23)
(0.727027 -0.00430875 -2.29376e-23)
(0.730602 -0.00421948 -3.44575e-23)
(0.734157 -0.00413278 4.46998e-23)
(0.737694 -0.00404867 2.79486e-23)
(0.741213 -0.00396717 -5.07285e-23)
(0.744716 -0.00388831 6.72995e-23)
(0.748203 -0.00381211 -4.91553e-23)
(0.751675 -0.00373863 3.41442e-23)
(0.755135 -0.0036679 -2.21114e-23)
(0.758584 -0.00359999 2.49538e-23)
(0.762023 -0.00353495 2.9427e-23)
(0.765453 -0.00347285 -2.38667e-23)
(0.768878 -0.00341378 -5.57436e-24)
(0.7723 -0.00335783 -9.37526e-25)
(0.775719 -0.00330508 2.21473e-23)
(0.779141 -0.00325564 -1.91879e-23)
(0.782566 -0.00320961 2.92147e-23)
(0.785999 -0.00316711 -1.06723e-23)
(0.789442 -0.00312823 1.13857e-23)
(0.792901 -0.00309306 -1.27451e-23)
(0.796377 -0.00306171 -7.37532e-25)
(0.799877 -0.0030342 -1.03954e-24)
(0.803402 -0.00301063 -1.57886e-23)
(0.806965 -0.00299077 1.25856e-24)
(0.810551 -0.00297502 -8.81278e-24)
(0.81421 -0.00296199 -8.41005e-25)
(0.817844 -0.00295419 2.11744e-24)
(0.821694 -0.00294432 -3.98463e-24)
(0.825225 -0.00294782 3.40526e-25)
(0.829652 -0.00292541 -6.66916e-25)
(0.832286 -0.00296462 2.40232e-25)
(0.839003 -0.00284588 3.66915e-24)
(0.634981 -0.0102463 4.5677e-22)
(0.639069 -0.010034 -2.02937e-24)
(0.643133 -0.00982513 -4.0911e-22)
(0.647174 -0.00961985 2.31653e-22)
(0.65119 -0.0094181 -1.33394e-22)
(0.655183 -0.00921991 -1.20318e-23)
(0.659151 -0.00902527 2.20519e-22)
(0.663095 -0.00883418 -2.03996e-22)
(0.667014 -0.00864664 1.32799e-22)
(0.670909 -0.00846265 7.79308e-23)
(0.67478 -0.00828221 -2.1247e-22)
(0.678627 -0.00810531 1.84331e-22)
(0.682449 -0.00793196 6.99293e-23)
(0.686248 -0.00776215 -1.51115e-22)
(0.690022 -0.00759588 6.35214e-24)
(0.693773 -0.00743314 1.81262e-22)
(0.6975 -0.00727392 -2.60065e-22)
(0.701204 -0.00711823 1.58554e-23)
(0.704885 -0.00696605 2.09127e-22)
(0.708543 -0.0068174 1.54712e-23)
(0.712179 -0.00667225 1.64187e-24)
(0.715793 -0.00653061 -5.65506e-23)
(0.719385 -0.00639249 -4.75758e-24)
(0.722957 -0.00625789 5.91469e-24)
(0.726508 -0.00612681 4.09573e-23)
(0.730039 -0.00599926 1.20804e-23)
(0.733551 -0.00587527 8.559e-23)
(0.737045 -0.00575484 -9.18102e-23)
(0.740521 -0.00563802 -1.52999e-23)
(0.74398 -0.00552482 -3.11172e-23)
(0.747424 -0.00541529 7.97765e-23)
(0.750854 -0.00530948 -3.61869e-23)
(0.75427 -0.00520745 -6.29922e-23)
(0.757674 -0.00510927 3.10097e-23)
(0.761068 -0.005015 -6.63061e-23)
(0.764453 -0.00492475 4.3289e-23)
(0.767831 -0.00483861 8.19552e-24)
(0.771203 -0.0047567 -3.71245e-23)
(0.774573 -0.00467914 1.53315e-23)
(0.777942 -0.00460605 -2.60225e-23)
(0.781313 -0.0045376 1.0692e-23)
(0.78469 -0.00447392 -3.81137e-23)
(0.788074 -0.00441515 5.58385e-24)
(0.791469 -0.00436146 -1.16706e-23)
(0.79488 -0.00431297 2.34904e-23)
(0.798309 -0.00426981 -1.44027e-23)
(0.801763 -0.00423201 1.37169e-24)
(0.805242 -0.00419973 3.41058e-24)
(0.808759 -0.00417262 1.16542e-24)
(0.8123 -0.00415126 6.25818e-25)
(0.815913 -0.00413367 -4.32318e-24)
(0.819503 -0.00412342 -1.92666e-24)
(0.823307 -0.00411024 2.99398e-24)
(0.826795 -0.00411576 -1.63386e-24)
(0.831172 -0.00408503 1.22697e-24)
(0.833774 -0.00414039 -9.40589e-25)
(0.840418 -0.0039756 7.63396e-24)
(0.64155 -0.013055 4.93916e-22)
(0.645514 -0.0127854 -7.63596e-22)
(0.649456 -0.0125203 2.04951e-22)
(0.653376 -0.0122597 -2.70976e-22)
(0.657274 -0.0120035 2.72737e-22)
(0.66115 -0.0117518 -6.18517e-23)
(0.665003 -0.0115046 2.70918e-22)
(0.668834 -0.0112619 -2.15799e-22)
(0.672642 -0.0110237 -1.10991e-23)
(0.676427 -0.01079 -1.87141e-23)
(0.68019 -0.0105607 3.59438e-22)
(0.683931 -0.010336 -8.7779e-23)
(0.687649 -0.0101157 -2.12091e-22)
(0.691344 -0.00989989 2.20902e-22)
(0.695018 -0.00968856 -1.79126e-22)
(0.698669 -0.0094817 1.09612e-22)
(0.702298 -0.0092793 8.49018e-23)
(0.705906 -0.00908137 -1.08248e-22)
(0.709492 -0.0088879 -3.82836e-23)
(0.713057 -0.00869888 2.8521e-22)
(0.716601 -0.00851431 -2.73189e-22)
(0.720125 -0.0083342 2.43057e-22)
(0.723629 -0.00815854 -7.77843e-23)
(0.727113 -0.00798735 -9.16659e-23)
(0.730579 -0.00782064 -1.04171e-22)
(0.734026 -0.00765841 9.63098e-23)
(0.737455 -0.0075007 8.80931e-23)
(0.740868 -0.00734753 -1.36087e-22)
(0.744264 -0.00719893 3.67096e-23)
(0.747645 -0.00705495 -2.21502e-24)
(0.751011 -0.00691564 7.80774e-24)
(0.754365 -0.00678107 4.39902e-23)
(0.757706 -0.00665132 -6.74952e-23)
(0.761037 -0.00652646 9.63797e-23)
(0.764358 -0.00640661 -1.40618e-22)
(0.767672 -0.00629187 7.17594e-23)
(0.77098 -0.00618239 -3.19526e-23)
(0.774284 -0.00607831 -1.64304e-24)
(0.777585 -0.00597978 -6.47912e-25)
(0.780888 -0.00588698 2.86948e-24)
(0.784193 -0.00580009 2.45494e-23)
(0.787504 -0.00571931 -1.96353e-23)
(0.790824 -0.00564481 -4.07936e-24)
(0.794156 -0.00557681 2.14838e-23)
(0.797504 -0.00551545 -2.92411e-23)
(0.800871 -0.00546091 6.27175e-24)
(0.804263 -0.00541323 -1.42436e-24)
(0.807681 -0.00537262 8.42154e-24)
(0.811137 -0.00533861 7.17326e-24)
(0.814618 -0.00531198 3.52313e-24)
(0.818172 -0.00529014 -2.03192e-24)
(0.821702 -0.00527773 1.87486e-24)
(0.825446 -0.00526149 -2.08025e-25)
(0.828877 -0.0052693 -1.56238e-24)
(0.833188 -0.00523055 -1.63878e-24)
(0.835747 -0.00530218 3.25856e-24)
(0.842296 -0.00509251 -1.12086e-23)
(0.649662 -0.0157763 -6.12394e-22)
(0.653474 -0.0154521 9.53784e-22)
(0.657266 -0.0151333 -7.13117e-22)
(0.661038 -0.0148197 7.56735e-22)
(0.664791 -0.0145115 2.62945e-22)
(0.668523 -0.0142087 -2.52116e-22)
(0.672235 -0.0139112 -4.9497e-22)
(0.675926 -0.0136191 4.00857e-22)
(0.679598 -0.0133323 -3.87046e-22)
(0.683248 -0.0130509 5.87537e-23)
(0.686879 -0.0127749 -4.46809e-22)
(0.690489 -0.0125043 6.81279e-22)
(0.694078 -0.012239 -2.95984e-22)
(0.697647 -0.011979 -3.22589e-22)
(0.701196 -0.0117245 5.28258e-22)
(0.704725 -0.0114753 -4.51316e-22)
(0.708234 -0.0112314 -2.77904e-22)
(0.711723 -0.0109929 3.74009e-22)
(0.715192 -0.0107598 5.00367e-24)
(0.718643 -0.010532 -3.54472e-24)
(0.722074 -0.0103095 1.77442e-23)
(0.725487 -0.0100924 -2.65001e-22)
(0.728882 -0.0098807 3.29518e-22)
(0.732259 -0.00967433 -2.95642e-23)
(0.735619 -0.00947334 -1.7881e-23)
(0.738963 -0.00927775 9.38419e-23)
(0.74229 -0.00908759 -1.32587e-22)
(0.745603 -0.00890291 1.17402e-22)
(0.7489 -0.00872373 -1.03435e-24)
(0.752184 -0.00855012 -7.53766e-23)
(0.755456 -0.00838215 -4.11816e-23)
(0.758716 -0.00821989 7.44153e-23)
(0.761965 -0.00806345 -6.09748e-23)
(0.765205 -0.00791292 3.19893e-23)
(0.768437 -0.00776844 9.55264e-23)
(0.771663 -0.00763015 -3.15575e-23)
(0.774884 -0.00749822 6.78979e-23)
(0.778103 -0.00737281 -3.74691e-23)
(0.781321 -0.00725412 1.01693e-22)
(0.784541 -0.00714238 1.25499e-23)
(0.787764 -0.0070378 -6.15461e-23)
(0.790995 -0.00694061 5.37686e-24)
(0.794236 -0.00685105 1.4717e-23)
(0.797489 -0.00676936 -3.78526e-23)
(0.80076 -0.00669572 3.55103e-23)
(0.80405 -0.00663037 2.17238e-25)
(0.807366 -0.00657332 -1.7708e-23)
(0.810709 -0.00652486 -1.61315e-23)
(0.81409 -0.0064844 -2.63866e-23)
(0.817497 -0.0064529 2.29109e-24)
(0.820976 -0.0064272 1.8263e-24)
(0.824433 -0.006413 7.42546e-25)
(0.828101 -0.00639403 3.65782e-24)
(0.831463 -0.00640445 3.58066e-24)
(0.835692 -0.00635807 5.54758e-25)
(0.838199 -0.00644614 -7.39081e-25)
(0.844628 -0.00619306 4.16753e-24)
(0.659252 -0.0183933 -2.7393e-22)
(0.662885 -0.0180175 2.52169e-22)
(0.666501 -0.0176478 -3.69549e-22)
(0.6701 -0.0172842 2.537e-22)
(0.673682 -0.0169268 -5.30498e-22)
(0.677246 -0.0165756 9.94058e-22)
(0.680792 -0.0162305 -3.58526e-22)
(0.68432 -0.0158916 1.68198e-22)
(0.687831 -0.0155588 -1.88008e-22)
(0.691323 -0.0152323 -1.22391e-22)
(0.694797 -0.0149119 1.27342e-22)
(0.698254 -0.0145977 1.03134e-23)
(0.701692 -0.0142897 3.14599e-22)
(0.705112 -0.0139879 9.2868e-23)
(0.708515 -0.0136923 2.45589e-24)
(0.7119 -0.0134029 2.55705e-23)
(0.715267 -0.0131196 -2.28911e-22)
(0.718616 -0.0128425 -6.70246e-23)
(0.721949 -0.0125717 1.97896e-22)
(0.725264 -0.012307 -1.30319e-22)
(0.728563 -0.0120485 -1.64169e-22)
(0.731846 -0.0117962 4.03941e-22)
(0.735112 -0.0115501 -5.30749e-22)
(0.738363 -0.0113102 7.0442e-24)
(0.741599 -0.0110766 4.48032e-22)
(0.74482 -0.0108492 -1.35912e-23)
(0.748028 -0.0106281 -1.66124e-22)
(0.751222 -0.0104134 2.05977e-22)
(0.754403 -0.0102051 -9.9112e-23)
(0.757573 -0.0100032 7.28444e-23)
(0.760732 -0.0098079 1.63313e-23)
(0.763881 -0.00961924 -5.92748e-23)
(0.767022 -0.00943735 4.4414e-24)
(0.770155 -0.00926235 1.39481e-23)
(0.773282 -0.00909439 5.12085e-23)
(0.776404 -0.00893365 -5.97321e-23)
(0.779523 -0.00878032 -4.32732e-23)
(0.782641 -0.0086346 -1.25596e-23)
(0.78576 -0.00849674 -1.03094e-23)
(0.788882 -0.00836698 1.42102e-23)
(0.792009 -0.00824558 -8.6125e-23)
(0.795145 -0.00813283 7.0279e-23)
(0.798292 -0.008029 -4.31959e-23)
(0.801452 -0.00793436 2.91352e-23)
(0.804631 -0.00784916 -5.66045e-23)
(0.807831 -0.00777364 2.9537e-23)
(0.811057 -0.00770785 6.63761e-24)
(0.81431 -0.00765212 2.98564e-25)
(0.817603 -0.00760574 2.95047e-23)
(0.820921 -0.00756989 -5.62188e-25)
(0.824312 -0.00754076 1.52282e-23)
(0.827683 -0.00752522 3.46992e-24)
(0.831262 -0.00750392 5.06948e-24)
(0.834541 -0.00751735 -4.6925e-25)
(0.838672 -0.00746378 -1.95905e-25)
(0.841117 -0.00756847 -2.28089e-24)
(0.847405 -0.00727376 2.25604e-24)
(0.670245 -0.0208897 7.65491e-22)
(0.673676 -0.0204658 -4.08315e-22)
(0.677092 -0.0200488 1.25199e-22)
(0.680494 -0.0196385 1.9171e-22)
(0.683881 -0.0192352 -3.47904e-22)
(0.687253 -0.0188387 1.90377e-22)
(0.690611 -0.018449 -5.67419e-22)
(0.693953 -0.0180663 5.62131e-23)
(0.697281 -0.0176905 3.667e-22)
(0.700593 -0.0173217 -2.78924e-22)
(0.70389 -0.0169597 -2.72008e-22)
(0.707171 -0.0166047 2.10952e-22)
(0.710437 -0.0162566 -1.26601e-22)
(0.713688 -0.0159155 3.78607e-22)
(0.716924 -0.0155813 1.64958e-23)
(0.720145 -0.0152541 -3.9521e-22)
(0.72335 -0.0149338 2.06673e-22)
(0.726541 -0.0146205 -3.67578e-22)
(0.729717 -0.0143141 -6.37773e-23)
(0.732879 -0.0140147 2.62433e-22)
(0.736026 -0.0137223 -2.19059e-22)
(0.739159 -0.0134368 1.52121e-22)
(0.742279 -0.0131583 2.92633e-22)
(0.745386 -0.0128869 -4.74361e-22)
(0.74848 -0.0126224 2.46835e-22)
(0.751562 -0.0123651 5.17924e-23)
(0.754632 -0.0121148 -1.5241e-22)
(0.757691 -0.0118718 -1.87456e-23)
(0.76074 -0.0116359 -2.89863e-22)
(0.763779 -0.0114074 1.6039e-22)
(0.76681 -0.0111863 -1.47879e-22)
(0.769832 -0.0109727 2.11224e-22)
(0.772848 -0.0107668 -9.69974e-23)
(0.775859 -0.0105687 -1.18728e-23)
(0.778865 -0.0103786 6.23335e-23)
(0.781869 -0.0101967 -1.38989e-22)
(0.784871 -0.0100232 4.08735e-23)
(0.787874 -0.00985835 -7.68132e-23)
(0.790879 -0.00970243 -9.6647e-25)
(0.793889 -0.00955572 4.97376e-23)
(0.796906 -0.00941853 2.15266e-23)
(0.799933 -0.00929118 2.46365e-23)
(0.802972 -0.00917398 4.80733e-23)
(0.806026 -0.00906728 -4.36542e-23)
(0.8091 -0.00897131 2.53728e-23)
(0.812195 -0.0088864 -5.02376e-23)
(0.815318 -0.00881257 6.70208e-24)
(0.818468 -0.00875023 7.50249e-24)
(0.821659 -0.00869854 -1.17761e-24)
(0.824876 -0.00865892 -1.04422e-23)
(0.828166 -0.00862689 -5.41792e-24)
(0.831437 -0.00861052 1.46127e-24)
(0.834914 -0.00858733 -3.50616e-24)
(0.838098 -0.00860422 3.10837e-24)
(0.842117 -0.00854399 7.03339e-25)
(0.84449 -0.00866551 2.72064e-24)
(0.850615 -0.00833122 -2.11773e-23)
(0.682556 -0.0232512 8.48156e-22)
(0.685762 -0.0227831 1.36788e-21)
(0.688956 -0.0223224 -1.65665e-21)
(0.692139 -0.0218692 2.26776e-22)
(0.695311 -0.0214235 -5.84596e-22)
(0.698471 -0.0209852 1.39992e-21)
(0.701619 -0.0205545 1.37973e-22)
(0.704755 -0.0201314 -1.48722e-21)
(0.70788 -0.0197158 5.85436e-22)
(0.710992 -0.0193078 9.59869e-22)
(0.714091 -0.0189073 -6.23584e-22)
(0.717179 -0.0185145 5.84469e-23)
(0.720254 -0.0181293 8.26582e-23)
(0.723316 -0.0177517 4.79049e-22)
(0.726367 -0.0173817 5.34288e-23)
(0.729405 -0.0170194 -7.0052e-22)
(0.732431 -0.0166647 8.02336e-22)
(0.735444 -0.0163177 -4.70004e-22)
(0.738446 -0.0159783 1.60864e-22)
(0.741437 -0.0156466 4.88437e-22)
(0.744415 -0.0153226 -4.7692e-23)
(0.747383 -0.0150062 1.47239e-22)
(0.750339 -0.0146976 -7.4134e-23)
(0.753285 -0.0143967 -4.00573e-22)
(0.756221 -0.0141036 2.94748e-22)
(0.759148 -0.0138183 -3.39652e-24)
(0.762065 -0.0135408 2.29059e-22)
(0.764973 -0.0132713 -1.75885e-22)
(0.767874 -0.0130098 -2.09895e-22)
(0.770767 -0.0127564 -1.83034e-23)
(0.773654 -0.0125112 2.52681e-23)
(0.776536 -0.0122744 1.05655e-22)
(0.779413 -0.0120461 -5.59812e-23)
(0.782286 -0.0118264 8.02877e-23)
(0.785158 -0.0116157 1.10115e-22)
(0.788029 -0.011414 -3.35724e-23)
(0.7909 -0.0112217 3.54069e-23)
(0.793774 -0.011039 -1.94859e-23)
(0.796652 -0.0108663 -2.472e-24)
(0.799537 -0.0107038 2.07056e-23)
(0.80243 -0.010552 -2.09964e-23)
(0.805335 -0.0104111 -4.4855e-23)
(0.808253 -0.0102816 1.61147e-23)
(0.811188 -0.0101637 -3.3255e-23)
(0.814143 -0.0100579 1.27786e-23)
(0.817122 -0.00996448 3.97174e-23)
(0.820128 -0.00988341 -4.90436e-23)
(0.823164 -0.00981521 -8.26727e-24)
(0.82624 -0.0097589 -1.53237e-23)
(0.829344 -0.00971614 1.69899e-23)
(0.83252 -0.00968179 -9.58029e-24)
(0.835679 -0.00966516 9.01533e-24)
(0.83904 -0.0096406 3.19208e-24)
(0.842118 -0.00966146 1.2805e-24)
(0.846011 -0.00959515 -6.02976e-25)
(0.848303 -0.00973371 3.17042e-25)
(0.854244 -0.00936213 -5.86202e-25)
(0.69609 -0.0254648 1.42923e-22)
(0.699051 -0.0249567 1.07141e-21)
(0.702005 -0.0244565 -1.38202e-21)
(0.70495 -0.0239643 -8.76158e-22)
(0.707888 -0.0234801 1.16903e-21)
(0.710817 -0.023004 -3.32305e-22)
(0.713737 -0.0225359 3.4033e-23)
(0.716649 -0.0220759 -2.13129e-22)
(0.719552 -0.0216241 1.28108e-22)
(0.722446 -0.0211804 1.25747e-21)
(0.725331 -0.0207448 -1.29553e-21)
(0.728207 -0.0203175 -2.75168e-23)
(0.731074 -0.0198983 5.48354e-22)
(0.733931 -0.0194874 -1.11748e-22)
(0.736779 -0.0190847 7.65324e-22)
(0.739618 -0.0186902 -8.25437e-22)
(0.742448 -0.018304 -1.26112e-22)
(0.745269 -0.017926 1.68365e-22)
(0.748081 -0.0175564 -2.85785e-22)
(0.750884 -0.017195 -1.00713e-24)
(0.753678 -0.0168419 2.07087e-22)
(0.756465 -0.0164972 -5.42448e-22)
(0.759243 -0.0161608 1.41722e-22)
(0.762013 -0.0158328 -2.05953e-22)
(0.764776 -0.0155133 1.51292e-22)
(0.767532 -0.0152022 2.50612e-22)
(0.770282 -0.0148997 -5.60941e-23)
(0.773025 -0.0146059 -3.96516e-23)
(0.775764 -0.0143207 -4.38675e-23)
(0.778497 -0.0140444 -3.57675e-23)
(0.781227 -0.013777 1.45954e-22)
(0.783954 -0.0135187 -1.1123e-22)
(0.786678 -0.0132697 4.75349e-23)
(0.789402 -0.0130302 -3.3351e-23)
(0.792126 -0.0128004 -1.50157e-23)
(0.794851 -0.0125805 -9.20891e-23)
(0.797579 -0.0123709 1.66701e-22)
(0.800311 -0.0121718 7.85218e-23)
(0.80305 -0.0119836 -3.27791e-23)
(0.805797 -0.0118067 3.819e-23)
(0.808554 -0.0116415 1.03609e-23)
(0.811324 -0.0114883 4.45604e-23)
(0.81411 -0.0113475 2.63748e-24)
(0.816913 -0.0112197 5.63617e-23)
(0.819739 -0.011105 -5.08323e-23)
(0.822588 -0.011004 5.92203e-23)
(0.825467 -0.0109165 1.844e-23)
(0.828376 -0.0108433 -1.98575e-23)
(0.831326 -0.0107831 1.46532e-23)
(0.834304 -0.0107379 -5.34714e-24)
(0.837355 -0.0107019 2.00716e-23)
(0.84039 -0.0106856 8.68639e-25)
(0.843624 -0.0106602 -1.57883e-24)
(0.846584 -0.0106856 -1.25634e-23)
(0.850337 -0.0106138 7.65574e-26)
(0.852541 -0.0107697 -7.89461e-25)
(0.858278 -0.0103633 5.18583e-23)
(0.710745 -0.0275193 4.1882e-22)
(0.713445 -0.0269756 1.61972e-22)
(0.716141 -0.0264403 5.66088e-22)
(0.718833 -0.0259134 5.27521e-22)
(0.72152 -0.0253949 -5.57335e-22)
(0.724202 -0.0248849 3.89519e-22)
(0.726879 -0.0243834 -8.1214e-22)
(0.72955 -0.0238905 1.15517e-21)
(0.732217 -0.0234062 -1.01512e-21)
(0.734877 -0.0229305 -3.95284e-22)
(0.737532 -0.0224634 2.68552e-22)
(0.740181 -0.022005 7.82692e-23)
(0.742824 -0.0215553 -1.31128e-22)
(0.745462 -0.0211144 6.40712e-22)
(0.748093 -0.0206822 -1.73262e-22)
(0.750718 -0.0202587 -4.61523e-22)
(0.753338 -0.019844 2.26855e-22)
(0.755951 -0.0194381 3.63877e-22)
(0.758559 -0.0190411 -6.52154e-22)
(0.761161 -0.0186529 6.22577e-22)
(0.763758 -0.0182735 -1.11326e-22)
(0.766349 -0.0179031 -2.08677e-22)
(0.768935 -0.0175415 5.015e-22)
(0.771516 -0.017189 -5.10913e-22)
(0.774093 -0.0168455 2.88115e-22)
(0.776666 -0.016511 -1.29567e-23)
(0.779235 -0.0161857 -1.21401e-22)
(0.781801 -0.0158697 -3.33917e-22)
(0.784365 -0.015563 5.74435e-22)
(0.786926 -0.0152658 -3.03353e-23)
(0.789486 -0.0149783 -2.86579e-22)
(0.792046 -0.0147005 2.36682e-22)
(0.794606 -0.0144327 1.4588e-22)
(0.797167 -0.0141751 -2.65163e-22)
(0.799731 -0.013928 -7.13551e-24)
(0.802299 -0.0136916 5.79513e-23)
(0.804872 -0.0134663 4.67122e-24)
(0.807451 -0.0132524 -2.34007e-23)
(0.810039 -0.0130503 -3.84515e-23)
(0.812636 -0.0128603 -2.08057e-22)
(0.815246 -0.012683 5.21788e-23)
(0.817871 -0.0125188 -2.16515e-24)
(0.820513 -0.012368 -6.3783e-23)
(0.823174 -0.0122312 -8.41994e-24)
(0.825858 -0.0121088 2.49349e-23)
(0.828568 -0.0120011 -9.89121e-24)
(0.831309 -0.0119083 4.05357e-23)
(0.83408 -0.0118308 -7.55918e-24)
(0.836893 -0.0117676 -8.7147e-24)
(0.839735 -0.0117208 -1.90046e-23)
(0.842649 -0.0116837 -1.89579e-24)
(0.84555 -0.0116685 -6.29745e-24)
(0.848645 -0.0116428 -2.05963e-23)
(0.851477 -0.0116734 1.61191e-24)
(0.855078 -0.0115968 9.44111e-25)
(0.857185 -0.0117702 4.51263e-24)
(0.8627 -0.0113318 -6.70291e-23)
(0.726412 -0.0294051 1.44456e-21)
(0.728838 -0.0288306 -3.68664e-22)
(0.731263 -0.0282648 5.92257e-22)
(0.733687 -0.0277076 -3.66712e-22)
(0.736109 -0.0271592 4.17844e-22)
(0.738531 -0.0266196 -8.76517e-22)
(0.740951 -0.0260889 4.35814e-22)
(0.743369 -0.0255671 -6.32532e-22)
(0.745785 -0.0250543 3.77311e-22)
(0.7482 -0.0245504 -6.55001e-22)
(0.750612 -0.0240556 1.0081e-21)
(0.753021 -0.0235698 -6.03171e-22)
(0.755428 -0.0230932 -2.35048e-22)
(0.757833 -0.0226257 1.6711e-21)
(0.760235 -0.0221674 -8.46894e-22)
(0.762634 -0.0217182 -4.25475e-23)
(0.765031 -0.0212783 -4.07322e-22)
(0.767425 -0.0208476 9.93762e-22)
(0.769816 -0.0204262 -1.03572e-21)
(0.772205 -0.0200141 6.92509e-22)
(0.774592 -0.0196114 -5.85246e-22)
(0.776976 -0.019218 1.96291e-22)
(0.779359 -0.0188341 -1.2119e-23)
(0.781739 -0.0184596 3.39133e-22)
(0.784119 -0.0180946 -3.08621e-22)
(0.786497 -0.0177393 2.76356e-23)
(0.788874 -0.0173937 1.90096e-22)
(0.791252 -0.0170579 -3.47031e-22)
(0.793629 -0.016732 2.85222e-22)
(0.796007 -0.0164161 -4.02679e-22)
(0.798387 -0.0161105 1.9326e-22)
(0.800768 -0.0158152 -1.98679e-22)
(0.803153 -0.0155306 1.28541e-23)
(0.805542 -0.0152569 9.63565e-23)
(0.807935 -0.0149943 -1.48641e-22)
(0.810335 -0.0147432 1.32013e-22)
(0.812742 -0.0145039 -6.54015e-23)
(0.815158 -0.0142768 1.3184e-22)
(0.817584 -0.0140622 -7.55347e-23)
(0.820023 -0.0138608 8.94328e-23)
(0.822475 -0.0136728 -1.12488e-22)
(0.824944 -0.0134989 1.11399e-22)
(0.827432 -0.0133394 4.00033e-23)
(0.829941 -0.0131949 3.71776e-23)
(0.832475 -0.0130658 -2.62071e-23)
(0.835035 -0.0129526 -7.17752e-24)
(0.837626 -0.0128553 -1.74953e-23)
(0.84025 -0.0127746 8.20013e-24)
(0.842916 -0.0127091 -2.73601e-23)
(0.845612 -0.0126615 5.21315e-23)
(0.848379 -0.0126241 -8.76775e-25)
(0.851136 -0.0126107 1.56931e-23)
(0.854082 -0.0125853 1.91407e-23)
(0.856776 -0.0126217 -4.80995e-24)
(0.860213 -0.012541 -7.2893e-26)
(0.862217 -0.0127322 -2.71447e-25)
(0.867493 -0.0122646 1.2813e-23)
(0.742978 -0.0311148 -1.63037e-21)
(0.745118 -0.0305143 5.32998e-22)
(0.74726 -0.0299226 7.12069e-22)
(0.749406 -0.0293399 -8.3438e-22)
(0.751554 -0.0287661 6.30034e-22)
(0.753705 -0.0282013 6.01432e-22)
(0.755857 -0.0276456 -1.65333e-21)
(0.758011 -0.0270991 -6.36138e-23)
(0.760167 -0.0265618 -1.69807e-22)
(0.762324 -0.0260338 9.79671e-22)
(0.764483 -0.0255151 -8.49332e-22)
(0.766642 -0.0250058 4.5609e-22)
(0.768803 -0.0245059 1.44991e-22)
(0.770964 -0.0240155 2.54287e-22)
(0.773127 -0.0235345 -2.26199e-23)
(0.775289 -0.0230631 -1.31698e-22)
(0.777453 -0.0226013 5.38062e-22)
(0.779618 -0.022149 -4.82838e-22)
(0.781783 -0.0217065 4.89531e-22)
(0.783949 -0.0212736 -3.34329e-22)
(0.786115 -0.0208504 -1.98631e-22)
(0.788283 -0.020437 -4.90274e-22)
(0.790452 -0.0200335 2.40352e-22)
(0.792622 -0.0196399 5.20485e-23)
(0.794794 -0.0192562 5.32091e-22)
(0.796968 -0.0188826 -3.70684e-22)
(0.799144 -0.0185191 1.89553e-22)
(0.801323 -0.0181659 5.89335e-23)
(0.803505 -0.0178231 -2.58281e-22)
(0.80569 -0.0174909 3.3561e-22)
(0.80788 -0.0171694 2.10952e-23)
(0.810074 -0.0168589 4.52886e-23)
(0.812274 -0.0165595 -1.25978e-22)
(0.814481 -0.0162717 -8.01649e-23)
(0.816695 -0.0159955 1.14135e-22)
(0.818917 -0.0157315 -5.27954e-23)
(0.82115 -0.01548 6.09307e-23)
(0.823393 -0.0152414 -1.55456e-22)
(0.825649 -0.0150161 1.67784e-22)
(0.827919 -0.0148046 -4.58378e-23)
(0.830206 -0.0146075 -9.75748e-23)
(0.83251 -0.0144252 6.53814e-23)
(0.834835 -0.0142583 7.53745e-23)
(0.837183 -0.0141074 -1.23165e-22)
(0.839556 -0.0139728 -3.45347e-23)
(0.841958 -0.0138552 4.62794e-23)
(0.844391 -0.0137545 -2.35319e-23)
(0.846858 -0.0136716 3.10677e-23)
(0.849368 -0.0136047 -5.09867e-23)
(0.851909 -0.013557 -4.18286e-24)
(0.854521 -0.0135201 3.33922e-23)
(0.857124 -0.0135092 -2.49514e-23)
(0.859912 -0.0134848 -9.6325e-24)
(0.86246 -0.0135276 5.86267e-24)
(0.865722 -0.0134436 8.57193e-26)
(0.867616 -0.0136529 6.78902e-25)
(0.872636 -0.013159 2.78862e-23)
(0.76217 -0.0320212 -3.73667e-23)
(0.764023 -0.0314085 1.92711e-21)
(0.765882 -0.0308048 -9.80335e-22)
(0.767748 -0.0302101 9.73201e-23)
(0.769619 -0.0296246 -7.93191e-25)
(0.771496 -0.0290484 2.42415e-23)
(0.773379 -0.0284814 -1.1814e-22)
(0.775266 -0.0279238 -6.6553e-22)
(0.777158 -0.0273757 1.11929e-21)
(0.779055 -0.0268371 -6.11971e-22)
(0.780957 -0.0263081 1.07318e-21)
(0.782863 -0.0257887 -8.49752e-22)
(0.784773 -0.025279 4.21555e-22)
(0.786688 -0.024779 -7.18885e-22)
(0.788607 -0.0242888 3.16622e-22)
(0.790529 -0.0238085 -2.29488e-22)
(0.792456 -0.023338 1.7513e-22)
(0.794387 -0.0228775 -4.77599e-23)
(0.796322 -0.022427 2.53658e-22)
(0.798261 -0.0219865 -4.68891e-22)
(0.800204 -0.0215561 4.45621e-22)
(0.802151 -0.0211358 1.33565e-22)
(0.804103 -0.0207258 -7.65741e-22)
(0.80606 -0.0203262 7.00737e-22)
(0.808021 -0.0199369 -6.72025e-22)
(0.809988 -0.0195582 6.66817e-22)
(0.81196 -0.0191901 -5.10511e-23)
(0.813939 -0.0188329 6.99689e-23)
(0.815924 -0.0184866 2.2637e-24)
(0.817915 -0.0181516 -3.14973e-22)
(0.819915 -0.0178279 2.81623e-22)
(0.821922 -0.017516 -1.21783e-22)
(0.823939 -0.017216 1.22617e-22)
(0.825966 -0.0169283 1.75977e-22)
(0.828003 -0.0166533 -1.23647e-22)
(0.830053 -0.0163914 3.18052e-23)
(0.832116 -0.016143 8.52678e-23)
(0.834194 -0.0159086 -9.05923e-23)
(0.836288 -0.0156888 -5.05942e-24)
(0.8384 -0.015484 -4.78312e-23)
(0.840532 -0.0152949 3.83299e-23)
(0.842687 -0.015122 -1.66065e-23)
(0.844865 -0.0149659 4.46731e-23)
(0.847071 -0.0148271 -1.15438e-23)
(0.849306 -0.0147062 -1.45548e-23)
(0.851574 -0.0146031 2.47181e-23)
(0.853877 -0.0145189 1.02981e-23)
(0.856222 -0.0144516 2.13946e-23)
(0.8586 -0.0144048 -2.87758e-23)
(0.861048 -0.014369 -3.54062e-23)
(0.86349 -0.0143614 3.44394e-23)
(0.86611 -0.0143386 2.40036e-23)
(0.868504 -0.0143885 1.31057e-23)
(0.871581 -0.0143019 -1.1332e-24)
(0.873361 -0.0145295 -2.2999e-24)
(0.878109 -0.0140124 1.77943e-23)
(0.779878 -0.0333475 2.05639e-21)
(0.781436 -0.0327186 -1.09005e-21)
(0.783004 -0.0320986 8.05547e-22)
(0.784582 -0.0314877 -1.13757e-21)
(0.78617 -0.030886 -1.52556e-22)
(0.787766 -0.0302935 8.63254e-22)
(0.789371 -0.0297104 3.53236e-22)
(0.790985 -0.0291367 -8.46382e-22)
(0.792607 -0.0285726 -5.09606e-22)
(0.794237 -0.028018 1.01467e-21)
(0.795875 -0.0274732 -6.83783e-23)
(0.797521 -0.0269381 -4.40388e-22)
(0.799175 -0.0264128 3.2634e-22)
(0.800836 -0.0258974 4.73692e-22)
(0.802505 -0.025392 -5.23002e-22)
(0.804181 -0.0248966 1.10694e-22)
(0.805864 -0.0244112 4.21026e-22)
(0.807555 -0.023936 -7.4904e-22)
(0.809252 -0.023471 2.60383e-22)
(0.810957 -0.0230162 -1.18948e-22)
(0.81267 -0.0225718 4.27384e-22)
(0.81439 -0.0221378 -3.81697e-22)
(0.816117 -0.0217143 -3.79621e-22)
(0.817853 -0.0213014 1.66004e-25)
(0.819596 -0.0208992 -8.14517e-23)
(0.821347 -0.0205078 1.09671e-22)
(0.823107 -0.0201275 1.12241e-22)
(0.824875 -0.0197582 3.73202e-22)
(0.826653 -0.0194003 -4.15228e-22)
(0.828441 -0.019054 -2.15382e-22)
(0.830239 -0.0187195 8.39237e-23)
(0.832048 -0.0183971 -2.12754e-22)
(0.833868 -0.0180871 -2.30079e-23)
(0.835701 -0.0177899 -2.2412e-22)
(0.837547 -0.0175058 -3.41816e-23)
(0.839408 -0.0172353 6.67832e-23)
(0.841284 -0.0169789 1.49418e-23)
(0.843178 -0.0167372 -1.29985e-22)
(0.845089 -0.0165106 1.35394e-22)
(0.847021 -0.0162997 9.28999e-24)
(0.848974 -0.0161052 4.03799e-23)
(0.850951 -0.0159277 -8.13002e-23)
(0.852954 -0.0157678 -9.11039e-23)
(0.854985 -0.015626 -9.67452e-24)
(0.857047 -0.0155029 1.23001e-22)
(0.859143 -0.0153985 3.44143e-23)
(0.861273 -0.0153141 -3.12936e-23)
(0.863448 -0.0152472 -4.60578e-23)
(0.865656 -0.0152021 2.12541e-23)