/*--------------------------------*- C++ -*----------------------------------*\
  =========                 |
  \\      /  F ield         | OpenFOAM: The Open Source CFD Toolbox
   \\    /   O peration     | Website:  https://openfoam.org
    \\  /    A nd           | Version:  7
     \\/     M anipulation  |
\*---------------------------------------------------------------------------*/
FoamFile
{
    version     2.0;
    format      ascii;
    class       volVectorField;
    location    "5";
    object      U;
}
// * * * * * * * * * * * * * * * * * * * * * * * * * * * * * * * * * * * * * //

dimensions      [0 1 -1 0 0 0 0];

internalField   nonuniform List<vector> 
2625
(
(0.49515 0.00816925 8.10968e-21)
(0.576899 0.00725914 9.76539e-21)
(0.49515 -0.0081608 -8.10968e-21)
(0.576899 -0.00725102 -9.76539e-21)
(0.645464 -0.00634942 8.06142e-21)
(0.70445 -0.00551267 -1.11116e-20)
(0.753878 -0.00477545 3.12013e-21)
(0.79608 -0.00413271 1.88126e-21)
(0.831725 -0.00357816 3.62977e-22)
(0.862165 -0.00309681 7.40352e-21)
(0.888017 -0.0026781 6.82481e-21)
(0.91007 -0.00231103 -1.55063e-21)
(0.928796 -0.00198789 -6.25338e-21)
(0.944679 -0.00170134 3.5863e-21)
(0.958082 -0.00144656 8.86466e-21)
(0.969283 -0.00121627 9.03391e-22)
(0.978589 -0.00101286 4.72592e-21)
(0.49566 -0.0244812 3.30173e-21)
(0.577345 -0.0217534 -3.72889e-21)
(0.645851 -0.0190495 1.54896e-20)
(0.704784 -0.0165399 6.71253e-21)
(0.754166 -0.0143286 -6.54507e-21)
(0.79633 -0.0124006 1.4039e-20)
(0.831941 -0.0107369 6.99376e-21)
(0.862353 -0.00929285 -6.40275e-21)
(0.888179 -0.00803661 -2.09304e-20)
(0.910209 -0.00693523 -1.07884e-20)
(0.928916 -0.00596556 1.42791e-20)
(0.94478 -0.00510565 -7.18686e-21)
(0.958165 -0.00434101 -2.52303e-20)
(0.969349 -0.00364985 6.02143e-22)
(0.978641 -0.00303935 2.27213e-21)
(0.496679 -0.0407727 2.82854e-20)
(0.578236 -0.0362322 3.86074e-21)
(0.646624 -0.0317305 -3.66904e-21)
(0.705451 -0.0275513 1.06256e-20)
(0.754743 -0.0238685 3.2765e-20)
(0.796828 -0.0206572 1.86464e-20)
(0.832373 -0.0178861 7.0245e-21)
(0.862727 -0.0154806 -1.82475e-20)
(0.888503 -0.013388 2.63488e-21)
(0.910489 -0.0115532 -1.129e-20)
(0.929155 -0.00993772 -1.2916e-20)
(0.944981 -0.00850512 1.5367e-20)
(0.958332 -0.00723118 2.05194e-20)
(0.969481 -0.0060798 -6.82746e-21)
(0.978745 -0.00506265 -3.21971e-20)
(0.498206 -0.0570159 -6.67075e-20)
(0.579571 -0.050672 4.49599e-20)
(0.647783 -0.0443795 1.66524e-20)
(0.706451 -0.0385364 -1.04392e-20)
(0.755607 -0.0333864 -2.63679e-20)
(0.797575 -0.0288952 -2.85477e-20)
(0.833021 -0.0250194 1.85905e-20)
(0.863289 -0.0216547 -1.86055e-20)
(0.88899 -0.0187274 4.40115e-20)
(0.910908 -0.0161607 1.59654e-20)
(0.929514 -0.0139007 1.15696e-20)
(0.945284 -0.0118965 -2.52953e-20)
(0.958583 -0.0101142 -4.90006e-21)
(0.969678 -0.00850367 1.72933e-20)
(0.978902 -0.00708064 2.70682e-20)
(0.500239 -0.0731918 5.21703e-20)
(0.581349 -0.0650571 -5.03033e-20)
(0.649325 -0.0569838 2.75063e-20)
(0.707782 -0.0494847 -3.01027e-20)
(0.756757 -0.0428734 -9.67766e-21)
(0.79857 -0.0371071 1.53003e-21)
(0.833883 -0.0321303 -2.45022e-20)
(0.864036 -0.0278095 3.23789e-20)
(0.889637 -0.0240501 -2.32692e-20)
(0.911467 -0.0207536 -5.15392e-21)
(0.929992 -0.0178509 1.22243e-20)
(0.945687 -0.0152766 -1.15001e-20)
(0.958917 -0.0129872 3.44502e-20)
(0.969942 -0.0109191 1.29398e-20)
(0.979112 -0.00909115 -1.38539e-20)
(0.502774 -0.0892811 -1.19283e-19)
(0.583567 -0.079372 8.0844e-21)
(0.65125 -0.0695308 -8.94248e-20)
(0.709443 -0.0603858 5.4204e-20)
(0.758193 -0.0523209 -7.87317e-20)
(0.799812 -0.0452856 -2.81252e-20)
(0.83496 -0.0392126 1.77366e-20)
(0.86497 -0.0339397 4.13862e-20)
(0.890446 -0.0293514 2.51932e-21)
(0.912164 -0.0253278 6.76637e-20)
(0.930589 -0.0217846 1.08248e-20)
(0.946191 -0.0186422 -1.68117e-20)
(0.959335 -0.0158474 -2.27149e-20)
(0.970272 -0.0133235 -4.20681e-20)
(0.979375 -0.011092 1.23568e-20)
(0.586222 -0.0936013 5.64331e-20)
(0.653555 -0.0820079 -2.18822e-20)
(0.711432 -0.0712293 -9.98266e-20)
(0.759912 -0.0617202 8.55056e-20)
(0.801299 -0.0534232 6.5086e-20)
(0.83625 -0.0462601 4.47279e-20)
(0.866089 -0.0400398 -6.3538e-20)
(0.891416 -0.0346266 -5.70795e-20)
(0.913001 -0.0298792 -8.85737e-20)
(0.931305 -0.0256982 -8.08879e-20)
(0.946795 -0.0219901 6.51655e-20)
(0.959838 -0.0186919 -3.89858e-20)
(0.970669 -0.0157146 2.5957e-20)
(0.979693 -0.0130811 6.73602e-21)
(0.58931 -0.10773 -8.75148e-20)
(0.656237 -0.0944026 -4.85629e-21)
(0.713747 -0.0820048 1.23414e-19)
(0.761914 -0.0710627 1.04563e-20)
(0.803031 -0.0615128 -2.76215e-20)
(0.837752 -0.0532663 -9.04723e-20)
(0.867392 -0.0461044 4.46243e-20)
(0.892545 -0.039871 4.29421e-20)
(0.913975 -0.0344038 4.76979e-20)
(0.932141 -0.0295882 3.25642e-20)
(0.947501 -0.0253172 -6.6545e-20)
(0.960424 -0.0215178 1.605e-20)
(0.971133 -0.0180899 6.02103e-20)
(0.980065 -0.015056 -6.27849e-20)
(0.592828 -0.121742 2.10366e-20)
(0.659293 -0.106702 1.63177e-19)
(0.716386 -0.0927022 -1.19481e-19)
(0.764196 -0.0803397 -1.20144e-19)
(0.805006 -0.069547 -2.04768e-20)
(0.839465 -0.0602253 5.45759e-20)
(0.868878 -0.0521283 1.96968e-20)
(0.893834 -0.04508 1.2452e-20)
(0.915088 -0.0388973 5.09532e-20)
(0.933094 -0.0334509 6.56784e-20)
(0.948307 -0.0286202 7.67055e-20)
(0.961095 -0.0243225 -9.7061e-21)
(0.971665 -0.0204469 -2.94318e-20)
(0.980493 -0.0170147 9.0712e-20)
(0.596771 -0.135623 -6.6787e-20)
(0.66272 -0.118895 3.13577e-20)
(0.719345 -0.103311 1.52219e-19)
(0.766756 -0.0895429 1.5209e-19)
(0.807221 -0.0775187 4.16468e-21)
(0.841387 -0.0671307 -1.29069e-19)
(0.870546 -0.0581061 2.81425e-20)
(0.89528 -0.050249 -1.54743e-20)
(0.916337 -0.043356 -7.63757e-20)
(0.934166 -0.0372828 -1.05335e-19)
(0.949214 -0.031896 -3.01329e-20)
(0.961851 -0.0271029 7.4802e-21)
(0.972266 -0.0227833 -9.43751e-20)
(0.980977 -0.0189547 -2.42539e-20)
(0.601133 -0.149358 1.13784e-19)
(0.666513 -0.130969 -4.56027e-20)
(0.722622 -0.113822 -5.66026e-20)
(0.769591 -0.0986638 2.86787e-20)
(0.809675 -0.0854209 1.45036e-19)
(0.843517 -0.0739767 1.66458e-19)
(0.872395 -0.0640327 -8.20929e-20)
(0.896884 -0.0553735 2.145e-20)
(0.917723 -0.0477757 1.46909e-20)
(0.935356 -0.0410805 1.53188e-19)
(0.950221 -0.0351416 1.61693e-21)
(0.962692 -0.0298564 3.90912e-20)
(0.972935 -0.0250965 -8.2556e-21)
(0.981519 -0.0208738 1.46576e-20)
(0.60591 -0.162933 -2.00448e-19)
(0.670667 -0.142911 -5.22531e-20)
(0.726213 -0.124225 2.73049e-20)
(0.772698 -0.107694 -2.0649e-19)
(0.812366 -0.0932464 -2.70233e-19)
(0.845853 -0.0807571 -2.03337e-19)
(0.874423 -0.0699028 8.3634e-20)
(0.898644 -0.060449 1.39103e-21)
(0.919245 -0.0521525 -2.09589e-20)
(0.936663 -0.0448404 -1.35315e-19)
(0.951329 -0.0383539 -2.36535e-20)
(0.963618 -0.0325802 -4.4553e-20)
(0.973675 -0.0273841 8.78565e-20)
(0.98212 -0.0227695 -6.98722e-20)
(0.611094 -0.176332 4.35042e-20)
(0.675179 -0.15471 -3.89558e-20)
(0.730113 -0.13451 -5.01546e-20)
(0.776075 -0.116626 5.81419e-20)
(0.81529 -0.100988 8.77605e-20)
(0.848392 -0.0874662 1.0717e-19)
(0.876629 -0.0757113 -4.59993e-20)
(0.900559 -0.0654711 2.60879e-20)
(0.920901 -0.0564827 -6.39435e-20)
(0.938087 -0.0485592 1.71411e-20)
(0.952538 -0.0415298 1.81548e-20)
(0.964629 -0.0352715 4.36014e-20)
(0.974484 -0.0296438 -6.77243e-20)
(0.98278 -0.0246395 1.11788e-19)
(0.616679 -0.189541 2.49129e-19)
(0.680042 -0.166354 -4.79362e-21)
(0.734319 -0.144667 8.84688e-21)
(0.779718 -0.125451 1.87407e-19)
(0.818446 -0.10864 1.00464e-19)
(0.851133 -0.0940981 6.93764e-20)
(0.87901 -0.0814534 2.89538e-20)
(0.902628 -0.0704354 -5.27648e-21)
(0.922692 -0.0607624 1.24643e-19)
(0.939627 -0.0522335 -1.02189e-21)
(0.953846 -0.0446664 9.18003e-21)
(0.965727 -0.0379275 -1.03037e-19)
(0.975365 -0.031873 1.76658e-20)
(0.983502 -0.0264812 -1.16419e-19)
(0.622658 -0.202547 3.64036e-20)
(0.68525 -0.177832 -1.35679e-19)
(0.738827 -0.154687 -2.22125e-20)
(0.783622 -0.134161 -1.663e-19)
(0.82183 -0.116195 -1.23654e-19)
(0.854073 -0.100647 2.87748e-20)
(0.881566 -0.0871241 -5.37853e-20)
(0.904848 -0.0753376 -1.71897e-19)
(0.924615 -0.0649879 -3.7692e-20)
(0.941283 -0.05586 -2.7995e-21)
(0.955255 -0.0477607 -5.78326e-20)
(0.96691 -0.0405456 1.39485e-19)
(0.976318 -0.0340694 -9.56354e-20)
(0.984285 -0.0282922 9.54945e-20)
(0.629022 -0.215336 -1.12277e-19)
(0.690798 -0.189132 1.78152e-20)
(0.74363 -0.164561 -9.87025e-20)
(0.787785 -0.142749 1.0841e-19)
(0.825439 -0.123646 -4.17583e-20)
(0.85721 -0.107107 -5.8476e-20)
(0.884293 -0.0927184 -2.01544e-19)
(0.90722 -0.0801737 1.49535e-19)
(0.92667 -0.0691555 9.77522e-20)
(0.943054 -0.0594354 9.09097e-20)
(0.956764 -0.0508097 5.08872e-20)
(0.968181 -0.0431231 -1.80668e-19)
(0.977344 -0.0362305 1.3019e-19)
(0.985132 -0.0300699 9.399e-21)
(0.635762 -0.227893 9.00713e-20)
(0.696679 -0.200243 1.06212e-19)
(0.748724 -0.174279 3.06108e-19)
(0.792202 -0.151207 -2.23432e-19)
(0.829269 -0.130988 2.98953e-20)
(0.86054 -0.113474 1.63271e-20)
(0.887191 -0.0982318 1.23903e-19)
(0.90974 -0.0849394 -7.57007e-20)
(0.928856 -0.0732616 -7.33965e-20)
(0.94494 -0.0629566 -6.46399e-20)
(0.958373 -0.0538107 -1.94659e-20)
(0.969537 -0.0456573 1.18965e-19)
(0.978443 -0.038354 8.90205e-21)
(0.986043 -0.0318119 -1.11892e-19)
(0.642871 -0.240207 -2.98634e-20)
(0.702886 -0.211155 -1.12895e-19)
(0.754104 -0.183833 -2.26969e-19)
(0.796868 -0.159527 2.26621e-19)
(0.833318 -0.138213 7.93448e-20)
(0.864062 -0.119741 -1.15096e-19)
(0.890255 -0.10366 -2.57768e-20)
(0.912408 -0.0896308 -3.41601e-20)
(0.931171 -0.0773027 -6.04328e-20)
(0.946939 -0.0664205 5.35738e-21)
(0.960082 -0.0567609 7.34022e-20)
(0.970981 -0.0481457 3.40306e-20)
(0.979617 -0.0404374 3.03115e-20)
(0.987021 -0.0335153 1.77345e-20)
(0.650339 -0.252263 -9.41489e-20)
(0.709411 -0.221856 1.80164e-20)
(0.759764 -0.193214 1.57155e-19)
(0.801779 -0.167703 -1.65054e-20)
(0.83758 -0.145316 2.70714e-21)
(0.867771 -0.125903 1.19049e-20)
(0.893485 -0.108997 2.98256e-19)
(0.91522 -0.094244 7.34928e-20)
(0.933614 -0.0812754 7.55782e-20)
(0.949052 -0.0698239 -5.86323e-20)
(0.961889 -0.0596574 2.51068e-20)
(0.972512 -0.0505856 -1.30408e-19)
(0.980866 -0.0424785 -6.41661e-20)
(0.988065 -0.0351778 8.70352e-20)
(0.658155 -0.264049 -1.76406e-21)
(0.716246 -0.232337 -1.32951e-19)
(0.765696 -0.202413 -2.8028e-19)
(0.80693 -0.175727 1.46254e-19)
(0.842053 -0.15229 -9.61084e-20)
(0.871664 -0.131956 4.45398e-20)
(0.896877 -0.11424 -2.04042e-19)
(0.918177 -0.098775 2.70078e-20)
(0.936184 -0.0851763 3.53718e-20)
(0.951276 -0.0731641 1.14551e-19)
(0.963796 -0.0624978 -6.89533e-20)
(0.97413 -0.0529747 6.10586e-20)
(0.982191 -0.0444749 1.28459e-19)
(0.989177 -0.0367966 -1.37114e-19)
(0.666309 -0.275553 -2.68976e-19)
(0.723384 -0.242587 3.85159e-19)
(0.771896 -0.211422 2.23245e-19)
(0.812315 -0.183592 -6.32982e-20)
(0.846732 -0.15913 3.99336e-20)
(0.875739 -0.137894 1.37071e-19)
(0.900429 -0.119385 1.04417e-19)
(0.921274 -0.10322 -5.57127e-21)
(0.938879 -0.0890023 -9.40174e-20)
(0.953611 -0.076438 -7.17228e-20)
(0.965801 -0.0652793 -4.18078e-20)
(0.975836 -0.0553105 6.73627e-20)
(0.983593 -0.0464244 -1.40107e-19)
(0.990358 -0.0383691 1.26133e-19)
(0.67479 -0.286762 2.43977e-19)
(0.730816 -0.252597 -7.26952e-20)
(0.778355 -0.220234 -8.5656e-20)
(0.81793 -0.191292 4.09026e-20)
(0.851612 -0.165831 -3.91789e-20)
(0.879992 -0.143712 -3.93796e-21)
(0.904138 -0.124426 -2.19551e-19)
(0.92451 -0.107576 9.8294e-20)
(0.941698 -0.0927501 4.6633e-20)
(0.956056 -0.0796429 -1.31249e-20)
(0.967905 -0.0679995 4.85126e-20)
(0.977629 -0.0575906 -1.82389e-20)
(0.985073 -0.0483247 -5.53117e-20)
(0.991608 -0.0398928 3.9164e-21)
(0.683588 -0.297666 1.62498e-19)
(0.738533 -0.262356 -1.52649e-19)
(0.785068 -0.228839 1.76612e-19)
(0.823769 -0.198819 -8.6585e-20)
(0.85669 -0.172385 -7.68981e-20)
(0.884419 -0.149406 -2.21241e-19)
(0.908001 -0.12936 -3.31573e-20)
(0.927884 -0.111839 -9.67394e-20)
(0.944638 -0.0964167 4.84981e-20)
(0.958611 -0.0827762 -1.20782e-19)
(0.970106 -0.070656 -4.49775e-20)
(0.979509 -0.0598127 8.30358e-20)
(0.986631 -0.0501736 2.11865e-20)
(0.992929 -0.0413649 3.34318e-20)
(0.746525 -0.271856 4.54552e-20)
(0.792027 -0.23723 -2.60788e-19)
(0.829825 -0.206168 1.16187e-19)
(0.86196 -0.17879 -3.12336e-20)
(0.889016 -0.154972 -3.68985e-20)
(0.912015 -0.134184 2.67738e-19)
(0.931391 -0.116006 -8.7311e-20)
(0.947699 -0.0999991 4.3323e-20)
(0.961272 -0.0858352 3.64964e-20)
(0.972404 -0.0732464 5.03954e-20)
(0.981477 -0.0619747 -7.06199e-20)
(0.988268 -0.0519691 5.71158e-20)
(0.994321 -0.0427829 -9.24456e-20)
(0.754783 -0.281087 4.78919e-22)
(0.799224 -0.245401 7.2172e-22)
(0.836093 -0.213332 -2.08709e-19)
(0.867417 -0.185038 1.23311e-19)
(0.893779 -0.160404 1.40682e-19)
(0.916177 -0.138893 -2.23824e-19)
(0.935031 -0.120073 -8.38972e-20)
(0.950878 -0.103495 -1.92394e-19)
(0.964041 -0.0888176 2.42056e-19)
(0.974798 -0.0757684 2.68819e-20)
(0.983531 -0.0640744 -9.78759e-20)
(0.989984 -0.0537091 -1.24161e-19)
(0.995783 -0.0441443 4.83594e-21)
(0.763297 -0.290041 1.61982e-19)
(0.806651 -0.253343 -1.04522e-19)
(0.842566 -0.220306 2.14649e-19)
(0.873057 -0.191125 2.51071e-19)
(0.898704 -0.165698 6.26607e-21)
(0.920483 -0.143483 5.72518e-20)
(0.938799 -0.124038 1.96191e-19)
(0.954173 -0.106901 9.23898e-20)
(0.966914 -0.0917208 -1.57562e-19)
(0.977288 -0.0782201 -1.35696e-19)
(0.985672 -0.0661099 9.23671e-20)
(0.991781 -0.0553916 1.01993e-20)
(0.997316 -0.0454466 7.4527e-20)
(0.772057 -0.298709 4.35152e-20)
(0.8143 -0.261051 3.8751e-19)
(0.849238 -0.227084 -1.596e-19)
(0.878873 -0.197047 -3.34902e-19)
(0.903787 -0.170852 -4.86413e-20)
(0.92493 -0.147952 8.33091e-20)
(0.942694 -0.127897 -3.63382e-20)
(0.957582 -0.110214 2.07902e-19)
(0.96989 -0.0945426 5.41883e-20)
(0.979873 -0.0805993 1.26366e-20)
(0.9879 -0.0680794 -1.29859e-21)
(0.993659 -0.0570146 5.71087e-20)
(0.99892 -0.0466873 1.46205e-21)
(0.781052 -0.307084 -1.81211e-19)
(0.822163 -0.268516 -2.51677e-19)
(0.856103 -0.23366 -2.45446e-19)
(0.884862 -0.202799 9.40826e-20)
(0.909023 -0.17586 1.64351e-19)
(0.929514 -0.152295 -2.89509e-20)
(0.946713 -0.131647 8.00424e-20)
(0.961103 -0.113433 -8.20973e-20)
(0.972969 -0.097281 -5.48648e-20)
(0.982551 -0.0829041 5.52006e-20)
(0.990213 -0.069981 3.73487e-21)
(0.995618 -0.0585763 9.0413e-20)
(1.00059 -0.0478642 -1.27666e-19)
(0.790271 -0.315158 1.73105e-19)
(0.830232 -0.275734 5.36284e-20)
(0.863153 -0.24003 1.11615e-19)
(0.891017 -0.208376 -8.45612e-20)
(0.914408 -0.180718 1.22051e-19)
(0.934232 -0.156511 1.14326e-19)
(0.950852 -0.135287 -1.73147e-19)
(0.964734 -0.116555 -2.52322e-19)
(0.976148 -0.0999339 -1.62496e-20)
(0.985323 -0.0851327 -1.14549e-19)
(0.992611 -0.0718132 -1.25e-19)
(0.997658 -0.060075 4.88443e-20)
(1.00233 -0.0489749 2.72866e-19)
(0.799702 -0.322922 -2.17169e-19)
(0.838497 -0.282698 -1.02415e-19)
(0.870381 -0.246187 1.86549e-20)
(0.897332 -0.213774 1.14394e-19)
(0.919938 -0.185425 -2.93368e-20)
(0.93908 -0.160595 -1.82456e-19)
(0.95511 -0.138812 1.68265e-19)
(0.968472 -0.119577 1.59714e-20)
(0.979425 -0.102499 9.3485e-20)
(0.988186 -0.0872835 2.60433e-19)
(0.995094 -0.0735746 1.83086e-19)
(0.99978 -0.0615088 -5.54607e-20)
(1.00414 -0.0500174 -2.66268e-19)
(0.809335 -0.330371 3.65048e-20)
(0.846949 -0.289402 2.09189e-19)
(0.87778 -0.252128 1.45395e-20)
(0.903802 -0.218989 -1.18612e-19)
(0.925607 -0.189975 -2.53914e-19)
(0.944054 -0.164545 1.1723e-19)
(0.959481 -0.142222 -2.07127e-19)
(0.972315 -0.122499 -1.41588e-21)
(0.982799 -0.104976 -1.48978e-19)
(0.99114 -0.0893548 -9.02727e-20)
(0.997659 -0.0752639 -1.94096e-20)
(1.00199 -0.0628761 -1.37577e-19)
(1.00601 -0.0509897 3.16134e-20)
(0.819157 -0.337497 -4.05264e-20)
(0.85558 -0.29584 -1.42952e-19)
(0.885343 -0.257848 3.93901e-19)
(0.910421 -0.224018 1.50114e-20)
(0.93141 -0.194366 5.853e-20)
(0.949151 -0.168358 -2.24152e-19)
(0.963965 -0.145513 -1.216e-21)
(0.976261 -0.125316 -4.83166e-20)
(0.986268 -0.107361 1.45625e-19)
(0.994183 -0.0913453 -6.11403e-20)
(1.00031 -0.07688 -2.0527e-19)
(1.00427 -0.0641752 -9.70096e-21)
(1.00794 -0.0518899 1.01801e-19)
(0.864379 -0.302008 4.30221e-20)
(0.893062 -0.263342 -1.95556e-19)
(0.917182 -0.228857 -1.10834e-19)
(0.937344 -0.198595 1.11937e-20)
(0.954365 -0.172031 1.35385e-19)
(0.968556 -0.148683 1.97992e-19)
(0.980306 -0.128029 1.28696e-19)
(0.98983 -0.109655 -4.61726e-20)
(0.997314 -0.0932536 1.52754e-21)
(1.00304 -0.0784221 1.23465e-19)
(1.00664 -0.0654041 1.64037e-19)
(1.00992 -0.0527157 -1.36377e-19)
(0.873336 -0.307901 4.79949e-20)
(0.90093 -0.268606 9.24667e-21)
(0.92408 -0.233502 -3.89062e-20)
(0.943402 -0.202659 -7.81699e-20)
(0.959693 -0.175563 1.28102e-20)
(0.973252 -0.15173 -1.56977e-19)
(0.984448 -0.130635 -1.10643e-19)
(0.993482 -0.111855 -5.26074e-20)
(1.00053 -0.0950785 1.61739e-20)
(1.00584 -0.0798895 -5.98703e-20)
(1.0091 -0.066561 2.27455e-20)
(1.01195 -0.053465 2.96842e-19)
(0.882443 -0.313513 -2.11327e-20)
(0.908938 -0.273637 7.61476e-20)
(0.931107 -0.237951 1.71105e-20)
(0.949579 -0.206555 2.88172e-19)
(0.965132 -0.178951 6.52789e-20)
(0.978049 -0.154653 6.13338e-20)
(0.988685 -0.133132 2.42034e-20)
(0.997223 -0.113959 -3.56795e-20)
(1.00383 -0.096819 1.00267e-20)
(1.00873 -0.0812818 -1.17108e-20)
(1.01163 -0.0676437 9.97317e-20)
(1.01403 -0.0541353 -2.69646e-19)
(0.891689 -0.31884 1.12344e-20)
(0.917079 -0.278431 -7.17318e-20)
(0.938259 -0.2422 2.09795e-19)
(0.955871 -0.210282 -1.01722e-19)
(0.970675 -0.182193 4.2134e-20)
(0.982944 -0.157449 1.12513e-19)
(0.993013 -0.135519 1.5572e-19)
(1.00105 -0.115968 -1.33616e-20)
(1.00722 -0.0984741 -6.86092e-20)
(1.01169 -0.0825988 2.18423e-20)
(1.01426 -0.0686499 -1.99322e-19)
(1.01615 -0.0547245 1.23968e-19)
(0.901063 -0.323879 9.05556e-20)
(0.925344 -0.282985 -1.68856e-19)
(0.945528 -0.246247 -9.03935e-20)
(0.962271 -0.213836 -2.28512e-20)
(0.97632 -0.185286 -1.73482e-19)
(0.987933 -0.160118 -3.63776e-20)
(0.997429 -0.137796 -1.18073e-19)
(1.00496 -0.11788 2.00077e-19)
(1.01068 -0.100043 1.64518e-19)
(1.01473 -0.0838408 8.02995e-20)
(1.01697 -0.0695772 -9.38371e-20)
(1.01829 -0.0552291 -1.92631e-19)
(0.910556 -0.328625 -6.80772e-20)
(0.933726 -0.287296 1.89334e-20)
(0.952907 -0.250089 -4.32603e-20)
(0.968775 -0.217215 -2.66203e-20)
(0.982061 -0.18823 4.42741e-20)
(0.993012 -0.162657 1.35906e-20)
(1.00193 -0.139959 6.10783e-20)
(1.00895 -0.119694 -2.00127e-19)
(1.01423 -0.101525 -8.43247e-20)
(1.01785 -0.0850084 -9.41714e-20)
(1.01977 -0.0704223 8.25535e-20)
(1.02046 -0.0556349 1.51157e-19)
(0.942215 -0.29136 -9.47812e-21)
(0.96039 -0.253724 1.13335e-19)
(0.975377 -0.220419 -4.53064e-20)
(0.987894 -0.191023 -1.24969e-19)
(0.998178 -0.165065 -2.04191e-19)
(1.00652 -0.142009 -6.17077e-20)
(1.01302 -0.121409 6.49935e-20)
(1.01785 -0.10292 2.73811e-20)
(1.02104 -0.0861023 1.21178e-19)
(1.02266 -0.0711769 -2.41009e-20)
(1.02263 -0.0559336 2.64585e-20)
(0.950803 -0.295175 5.17342e-20)
(0.967969 -0.25715 -6.21449e-20)
(0.982071 -0.223444 3.51499e-20)
(0.993814 -0.193663 5.75219e-20)
(1.00343 -0.167342 2.07429e-19)
(1.01118 -0.143945 1.22009e-19)
(1.01717 -0.123024 5.55494e-20)
(1.02155 -0.104226 -1.04502e-20)
(1.0243 -0.0871224 -8.92164e-20)
(1.02565 -0.0718342 2.10285e-20)
(1.02478 -0.0562817 -2.67199e-20)
(0.959482 -0.29874 1.69404e-19)
(0.975639 -0.260365 4.69128e-20)
(0.988852 -0.22629 1.44202e-19)
(0.999817 -0.196148 7.55287e-20)
(1.00875 -0.169485 -1.96846e-19)
(1.01592 -0.145765 -1.14694e-19)
(1.02139 -0.124539 1.10805e-19)
(1.02532 -0.105444 8.88213e-21)
(1.02764 -0.0880683 8.29164e-20)
(1.02874 -0.072418 -2.06445e-20)
(1.02695 -0.057049 2.11829e-20)
(0.968243 -0.30205 -1.983e-19)
(0.983392 -0.263366 -9.70199e-20)
(0.995714 -0.228954 -2.6471e-19)
(1.0059 -0.198479 -1.67458e-20)
(1.01416 -0.171494 1.75997e-19)
(1.02073 -0.147469 6.51975e-20)
(1.02568 -0.125954 -2.1802e-19)
(1.02916 -0.106573 -3.36199e-20)
(1.03105 -0.0889415 -1.06572e-19)
(1.03192 -0.0729449 1.51923e-20)
(1.02965 -0.057764 -4.57469e-21)
(0.977077 -0.305106 1.85948e-19)
(0.991221 -0.266154 3.18335e-20)
(1.00265 -0.231437 1.78087e-19)
(1.01205 -0.200653 -2.94896e-20)
(1.01963 -0.173369 -2.69566e-20)
(1.02561 -0.149056 -4.29655e-20)
(1.03004 -0.127267 1.78627e-19)
(1.03307 -0.107612 7.91807e-20)
(1.03453 -0.0897394 -4.61501e-20)
(1.03516 -0.0733999 1.08779e-19)
(1.0326 -0.058345 -1.29736e-19)
(0.999118 -0.268726 -1.05464e-19)
(1.00966 -0.233736 -1.10212e-19)
(1.01828 -0.202671 1.27223e-20)
(1.02517 -0.175109 2.50429e-20)
(1.03056 -0.150525 1.02759e-19)
(1.03447 -0.128478 -7.36625e-21)
(1.03705 -0.108561 -1.50359e-19)
(1.03809 -0.0904598 1.45982e-19)
(1.03846 -0.0737831 -9.72425e-20)
(1.03565 -0.0587995 -1.30592e-20)
(1.00708 -0.271081 1.64792e-19)
(1.01673 -0.235852 7.99094e-20)
(1.02456 -0.204531 8.80632e-20)
(1.03078 -0.176712 1.49022e-20)
(1.03557 -0.151877 4.85483e-20)
(1.03896 -0.129587 1.04588e-20)
(1.0411 -0.10942 5.50319e-20)
(1.04173 -0.0911016 -1.2453e-19)
(1.04183 -0.0740989 1.72086e-19)
(1.03879 -0.059144 2.04446e-19)
(1.01509 -0.273218 -1.50611e-19)
(1.02386 -0.237783 5.51521e-20)
(1.03091 -0.206232 -4.60381e-20)
(1.03644 -0.17818 -1.47125e-19)
(1.04064 -0.153111 -1.9436e-19)
(1.04351 -0.130593 -1.05565e-19)
(1.04521 -0.110189 -1.2529e-19)
(1.04544 -0.0916647 6.63897e-21)
(1.04527 -0.0743498 -2.59577e-19)
(1.042 -0.0593996 6.33947e-20)
(1.02315 -0.275137 1.70653e-19)
(1.03104 -0.239528 -8.09624e-20)
(1.03731 -0.207776 3.94957e-22)
(1.04216 -0.17951 1.2471e-20)
(1.04577 -0.154227 7.96831e-20)
(1.04812 -0.131497 1.81789e-19)
(1.04938 -0.110869 1.25724e-19)
(1.04923 -0.0921492 2.85399e-20)
(1.04878 -0.0745366 1.69313e-19)
(1.04529 -0.0595713 -7.41431e-20)
(1.03826 -0.241088 1.03791e-19)
(1.04376 -0.20916 -7.96007e-20)
(1.04793 -0.180705 6.67558e-20)
(1.05095 -0.155225 6.97584e-20)
(1.05279 -0.132299 -1.05549e-19)
(1.05361 -0.111459 -8.0358e-21)
(1.05308 -0.0925555 1.40695e-20)
(1.05236 -0.0746597 -3.98064e-20)
(1.04865 -0.0596622 -4.65086e-20)
(1.04553 -0.242463 -1.30475e-19)
(1.05025 -0.210386 1.12298e-19)
(1.05375 -0.181762 -7.92421e-20)
(1.05618 -0.156105 -1.13704e-19)
(1.05751 -0.132999 3.40998e-20)
(1.0579 -0.111961 -7.61504e-20)
(1.057 -0.092884 -6.1218e-20)
(1.056 -0.0747199 1.92199e-20)
(1.05209 -0.0596746 -6.62461e-20)
(1.05283 -0.243651 1.41739e-19)
(1.05678 -0.211453 -7.86295e-20)
(1.05961 -0.182684 1.2381e-19)
(1.06145 -0.156867 2.64492e-21)
(1.06228 -0.133597 -1.42663e-19)
(1.06224 -0.112375 4.51278e-20)
(1.06099 -0.0931354 8.15377e-21)
(1.0597 -0.074718 1.69965e-20)
(1.0556 -0.0596107 1.42548e-19)
(1.06335 -0.212362 -1.12846e-21)
(1.0655 -0.183469 -1.49837e-20)
(1.06677 -0.157512 1.35371e-19)
(1.06709 -0.134095 1.89054e-19)
(1.06664 -0.112703 4.66412e-20)
(1.06503 -0.0933107 7.08249e-20)
(1.06346 -0.074655 4.11722e-20)
(1.05918 -0.0594727 3.42888e-20)
(1.06994 -0.213112 3.38997e-20)
(1.07144 -0.184118 -7.34632e-20)
(1.07213 -0.15804 -1.28213e-19)
(1.07196 -0.134491 -1.16308e-19)
(1.07108 -0.112944 -2.61355e-20)
(1.06914 -0.0934107 -1.41195e-20)
(1.06728 -0.0745322 -3.79517e-20)
(1.06284 -0.059263 -5.48312e-20)
(1.07656 -0.213705 -7.08546e-20)
(1.0774 -0.184632 3.94386e-20)
(1.07752 -0.158451 3.9034e-20)
(1.07686 -0.134788 -8.37992e-20)
(1.07557 -0.1131 -3.10728e-20)
(1.0733 -0.0934366 1.10329e-21)
(1.07116 -0.074351 -5.33369e-20)
(1.08339 -0.185011 1.12918e-20)
(1.08294 -0.158747 2.64357e-20)
(1.0818 -0.134985 1.9524e-19)
(1.08011 -0.113172 -2.56976e-21)
(1.07751 -0.0933895 -1.12265e-21)
(1.07509 -0.0741128 3.84146e-20)
(1.0894 -0.185257 -7.74509e-20)
(1.08839 -0.158929 1.56766e-20)
(1.08677 -0.135084 -1.3353e-19)
(1.08469 -0.113162 7.27148e-20)
(1.08177 -0.0932708 2.7641e-20)
(1.07907 -0.0738194 -9.9981e-21)
(1.09387 -0.158996 2.3844e-20)
(1.09178 -0.135086 8.67196e-20)
(1.0893 -0.113069 -1.40427e-20)
(1.08608 -0.0930819 -3.36184e-20)
(1.0831 -0.0734726 -7.19377e-20)
(1.09936 -0.15895 -1.80849e-20)
(1.09681 -0.134992 -1.43013e-20)
(1.09394 -0.112897 -2.50642e-20)
(1.09043 -0.0928242 3.46928e-20)
(1.08718 -0.0730745 3.77891e-20)
(1.10487 -0.158793 -1.64338e-20)
(1.10187 -0.134803 -4.38702e-20)
(1.09862 -0.112645 -5.49207e-20)
(1.09482 -0.0924995 -4.04216e-20)
(1.0913 -0.0726272 -1.47169e-20)
(1.10695 -0.134519 8.60759e-21)
(1.10333 -0.112315 1.33634e-19)
(1.09924 -0.0921094 7.4291e-21)
(1.09546 -0.0721328 2.3277e-20)
(1.10805 -0.11191 -5.41451e-20)
(1.10369 -0.0916556 -2.92607e-20)
(1.09966 -0.0715936 7.74628e-22)
(1.1128 -0.111429 -4.38291e-20)
(1.10818 -0.0911398 -2.34929e-20)
(1.10389 -0.0710118 5.88257e-21)
(1.11268 -0.0905639 5.0315e-20)
(1.11721 -0.0899297 -6.77274e-20)
(1 -0.000820502 1.69604e-22)
(1.00005 -0.00241993 2.44379e-21)
(1.00016 -0.00398855 -1.15615e-21)
(1.00033 -0.00552925 -1.39897e-21)
(1.00056 -0.00705866 3.51263e-21)
(1.00084 -0.00858284 4.66296e-21)
(1.00117 -0.0101105 -6.72065e-21)
(1.00154 -0.0116478 -1.29363e-21)
(1.00197 -0.0132007 1.37433e-20)
(1.00245 -0.0147739 -3.44887e-20)
(1.00297 -0.0163717 2.4044e-20)
(1.00355 -0.0179973 -2.05589e-20)
(1.00418 -0.0196537 2.23413e-21)
(1.00485 -0.0213431 1.32659e-20)
(1.00558 -0.0230673 1.47472e-21)
(1.00636 -0.0248278 -8.80991e-22)
(1.0072 -0.0266256 3.29248e-21)
(1.00809 -0.0284612 -3.4656e-21)
(1.00903 -0.0303349 2.06081e-20)
(1.01004 -0.0322468 -2.2081e-20)
(1.0111 -0.0341961 1.73277e-20)
(1.01222 -0.0361819 -1.30194e-20)
(1.0134 -0.0382019 -1.34631e-20)
(1.01464 -0.0402531 2.52973e-20)
(1.01595 -0.0423289 -4.29623e-20)
(1.01731 -0.0444226 3.77044e-20)
(1.01873 -0.0465148 1.2772e-20)
(1.02019 -0.0486026 2.31708e-20)
(1.02169 -0.0506102 -6.90169e-20)
(1.02309 -0.05255 5.10811e-20)
(0.999998 -0.000815431 -1.16312e-21)
(1.00004 -0.00241156 3.9958e-21)
(1.00014 -0.00397323 9.99866e-22)
(1.00028 -0.00550745 -4.69611e-21)
(1.00048 -0.00702954 -5.05138e-21)
(1.00073 -0.00854471 6.96095e-21)
(1.00102 -0.0100612 -4.82016e-21)
(1.00136 -0.0115855 1.19907e-20)
(1.00175 -0.013123 -1.87097e-21)
(1.00218 -0.0146784 -3.4523e-21)
(1.00265 -0.016256 6.14668e-21)
(1.00317 -0.0178588 -1.4081e-20)
(1.00374 -0.0194896 3.43859e-22)
(1.00436 -0.0211507 1.95931e-20)
(1.00502 -0.0228439 1.29693e-20)
(1.00574 -0.0245703 -2.6942e-20)
(1.0065 -0.0263312 -2.35426e-21)
(1.00732 -0.028127 -6.01611e-21)
(1.00818 -0.0299582 2.80456e-20)
(1.00911 -0.0318248 -1.01866e-20)
(1.01008 -0.0337265 -6.50357e-21)
(1.01111 -0.0356624 -7.97149e-21)
(1.0122 -0.037631 2.30687e-21)
(1.01334 -0.0396296 4.97805e-20)
(1.01453 -0.0416537 -7.33335e-20)
(1.01576 -0.043696 6.93357e-21)
(1.01702 -0.0457435 5.5273e-20)
(1.01829 -0.0477783 -5.0187e-21)
(1.01952 -0.0497339 -3.3046e-20)
(1.02062 -0.0515513 -4.40189e-20)
(0.999997 -0.000810975 4.93698e-23)
(1.00003 -0.00240314 2.87206e-21)
(1.00011 -0.00396046 1.82946e-21)
(1.00024 -0.00549208 -7.56235e-21)
(1.00041 -0.00700789 1.09272e-20)
(1.00063 -0.00851656 -2.48929e-21)
(1.00089 -0.0100256 5.33144e-22)
(1.00119 -0.0115413 1.20531e-21)
(1.00153 -0.013069 -1.16039e-20)
(1.00191 -0.0146134 -1.1281e-20)
(1.00234 -0.0161781 6.51774e-21)
(1.0028 -0.0177666 3.11623e-21)
(1.00331 -0.0193817 2.15001e-20)
(1.00387 -0.0210259 -2.32067e-20)
(1.00447 -0.0227008 -6.20569e-21)
(1.00511 -0.0244078 2.48742e-20)
(1.00581 -0.0261483 -4.10209e-21)
(1.00655 -0.0279228 1.71018e-20)
(1.00733 -0.0297319 -2.77947e-20)
(1.00817 -0.0315758 1.56941e-20)
(1.00906 -0.0334542 -2.43945e-20)
(1.01 -0.0353663 3.51917e-20)
(1.01098 -0.0373106 -2.30299e-20)
(1.01202 -0.0392841 1.07983e-20)
(1.01309 -0.0412811 1.25865e-21)
(1.0142 -0.0432925 -3.56356e-20)
(1.01533 -0.0453029 4.5666e-20)
(1.01645 -0.0472836 1.71324e-20)
(1.01754 -0.0491803 -4.10654e-20)
(1.01849 -0.0509844 6.98468e-20)
(0.999996 -0.000806513 -7.896e-22)
(1.00002 -0.002393 -2.06605e-21)
(1.00009 -0.00394512 5.04772e-21)
(1.0002 -0.0054722 -6.12984e-21)
(1.00035 -0.00698299 -6.33459e-21)
(1.00053 -0.00848611 8.41619e-22)
(1.00076 -0.00998878 -6.48183e-22)
(1.00102 -0.0114971 2.01181e-21)
(1.00131 -0.0130164 -1.06097e-20)
(1.00165 -0.0145512 2.67243e-20)
(1.00202 -0.0161051 2.39008e-21)
(1.00244 -0.0176817 -9.30173e-21)
(1.00289 -0.0192839 -1.29881e-20)
(1.00338 -0.0209137 2.14539e-20)
(1.00392 -0.0225731 8.57129e-21)
(1.00449 -0.0242635 -3.67158e-20)
(1.00511 -0.0259861 3.1793e-21)
(1.00577 -0.0277417 2.11357e-20)
(1.00648 -0.0295307 -3.11423e-20)
(1.00723 -0.0313532 1.14565e-21)
(1.00803 -0.0332089 1.07407e-20)
(1.00888 -0.0350968 2.50558e-20)
(1.00976 -0.0370149 4.60866e-20)
(1.01069 -0.0389597 -9.57377e-21)
(1.01166 -0.040925 -9.72997e-20)
(1.01265 -0.0429012 6.58281e-20)
(1.01366 -0.0448728 -1.07344e-20)
(1.01467 -0.0468109 2.32376e-20)
(1.01564 -0.0486766 -3.40906e-23)
(1.01649 -0.0504808 2.424e-20)
(0.999994 -0.00080078 -6.64573e-23)
(1.00002 -0.00237801 2.87347e-21)
(1.00007 -0.00392157 -6.34542e-21)
(1.00016 -0.00544071 2.18336e-22)
(1.00029 -0.0069438 -8.14987e-22)
(1.00044 -0.00843876 -2.17932e-21)
(1.00063 -0.00993249 1.53315e-21)
(1.00085 -0.0114309 2.26546e-21)
(1.00111 -0.0129392 -7.20833e-21)
(1.0014 -0.0144618 -7.18438e-21)
(1.00172 -0.0160026 2.33636e-20)
(1.00208 -0.0175649 -1.84644e-20)
(1.00247 -0.0191513 8.94182e-21)
(1.0029 -0.0207639 -2.37878e-20)
(1.00337 -0.0224048 2.48022e-21)
(1.00388 -0.0240753 2.03321e-20)
(1.00443 -0.0257766 7.63326e-21)
(1.00501 -0.0275094 -8.86206e-21)
(1.00564 -0.0292741 -8.25398e-21)
(1.00631 -0.0310708 -2.26112e-20)
(1.00702 -0.032899 2.61634e-20)
(1.00777 -0.0347575 1.43273e-20)
(1.00856 -0.0366443 -1.06731e-20)
(1.00939 -0.0385554 -3.6114e-21)
(1.01025 -0.0404847 -3.89845e-20)
(1.01113 -0.0424228 3.17207e-20)
(1.01203 -0.0443549 1.19642e-20)
(1.01292 -0.0462548 -2.75223e-20)
(1.01379 -0.0480919 6.28721e-20)
(1.01455 -0.0498833 2.30393e-20)
(0.999993 -0.00079361 -1.99044e-21)
(1.00001 -0.00235816 7.0143e-21)
(1.00005 -0.00388993 2.53535e-21)
(1.00013 -0.00539798 3.065e-21)
(1.00022 -0.00689027 -1.15366e-20)
(1.00035 -0.0083742 1.03673e-20)
(1.00051 -0.00985635 -7.63755e-21)
(1.00069 -0.0113424 6.20412e-21)
(1.00091 -0.0128375 8.04951e-21)
(1.00115 -0.0143458 -2.18938e-20)
(1.00142 -0.0158712 3.33235e-20)
(1.00173 -0.0174168 -3.71026e-20)
(1.00207 -0.0189853 1.40685e-20)
(1.00244 -0.0205788 1.64428e-20)
(1.00284 -0.0221993 -2.71679e-20)
(1.00328 -0.023848 1.95556e-20)
(1.00376 -0.0255262 -8.81367e-21)
(1.00427 -0.0272345 2.76317e-20)
(1.00482 -0.0289734 -1.65245e-20)
(1.0054 -0.0307428 4.34685e-21)
(1.00602 -0.0325422 2.12539e-20)
(1.00668 -0.0343703 -3.57484e-20)
(1.00738 -0.0362248 -3.83736e-20)
(1.00811 -0.0381017 4.3453e-20)