/*--------------------------------*- C++ -*----------------------------------*\
  =========                 |
  \\      /  F ield         | OpenFOAM: The Open Source CFD Toolbox
   \\    /   O peration     | Website:  https://openfoam.org
    \\  /    A nd           | Version:  7
     \\/     M anipulation  |
\*---------------------------------------------------------------------------*/
FoamFile
{
    version     2.0;
    format      ascii;
    class       surfaceScalarField;
    location    "20";
    object      phi;
}
// * * * * * * * * * * * * * * * * * * * * * * * * * * * * * * * * * * * * * //

dimensions      [0 3 -1 0 0 0 0];

internalField   nonuniform List<scalar> 
5135
(
0.00390783
-0.000130766
0.0040415
-0.000133671
0.00417801
-0.000136514
0.00431731
-0.000139292
-0.000142003
0.00445931
0.00386227
-0.000259997
0.00399437
-0.000265773
0.00412928
-0.000271427
0.00426694
-0.000276952
-0.000282343
0.00440728
0.00381728
-0.000387714
0.00394783
-0.000396328
0.00408117
-0.000404761
0.00421722
-0.000413002
-0.000421041
0.00435591
0.00377286
-0.000513936
0.00390189
-0.000525357
0.00403366
-0.000536536
0.00416812
-0.000547462
-0.00055812
0.0043052
0.003729
-0.000638685
0.00385652
-0.000652879
0.00398676
-0.000666774
0.00411965
-0.000680353
-0.000693602
0.00425513
0.00368569
-0.000761978
0.00381172
-0.000778914
0.00394044
-0.000795494
0.00407179
-0.000811697
-0.000827506
0.00420569
0.00364292
-0.000883836
0.00376749
-0.000903483
0.00389472
-0.000922716
0.00402453
-0.000941512
-0.000959853
0.00415688
0.0036007
-0.00100428
0.00372382
-0.0010266
0.00384956
-0.00104846
0.00397787
-0.00106982
-0.00109066
0.00410868
0.003559
-0.00112332
0.00368069
-0.00114829
0.00380497
-0.00117274
0.00393179
-0.00119664
-0.00121996
0.00406109
0.00351782
-0.00124098
0.0036381
-0.00126857
0.00376094
-0.00129559
0.00388629
-0.00132199
-0.00134775
0.00401409
0.00347716
-0.00135728
0.00359604
-0.00138746
0.00371746
-0.00141701
0.00384136
-0.00144588
-0.00147407
0.00396767
0.00343699
-0.00147223
0.00355451
-0.00150497
0.00367452
-0.00153702
0.00379698
-0.00156834
-0.00159892
0.00392183
0.00339733
-0.00158585
0.00351348
-0.00162112
0.00363211
-0.00165565
0.00375315
-0.00168939
-0.00172233
0.00387656
0.00335815
-0.00169816
0.00347296
-0.00173593
0.00359022
-0.0017729
0.00370986
-0.00180903
-0.00184431
0.00383184
0.00331945
-0.00180918
0.00343294
-0.00184942
0.00354884
-0.00188881
0.0036671
-0.00192729
-0.00196487
0.00378767
0.00328122
-0.00191891
0.0033934
-0.00196159
0.00350796
-0.00200337
0.00362485
-0.00204419
-0.00208405
0.00374403
0.00324346
-0.00202738
0.00335434
-0.00207247
0.00346758
-0.00211661
0.00358312
-0.00215973
-0.00220184
0.00370091
0.00320615
-0.0021346
0.00331575
-0.00218207
0.00342768
-0.00222854
0.00354189
-0.00227393
-0.00231827
0.00365832
0.00316929
-0.00224059
0.00327763
-0.00229041
0.00338826
-0.00233918
0.00350115
-0.00238681
-0.00243334
0.00361622
0.00313287
-0.00234535
0.00323996
-0.0023975
0.00334932
-0.00244853
0.00346089
-0.00249839
-0.00254708
0.00357463
0.00309688
-0.0024489
0.00320273
-0.00250334
0.00331083
-0.00255663
0.00342111
-0.00260867
-0.0026595
0.00353352
0.00306132
-0.00255126
0.00316595
-0.00260797
0.00327279
-0.00266347
0.00338179
-0.00271766
-0.0027706
0.00349289
0.00302618
-0.00265244
0.0031296
-0.00271139
0.0032352
-0.00276907
0.00334293
-0.00282539
-0.00288041
0.00345273
0.00299145
-0.00275245
0.00309367
-0.00281361
0.00319804
-0.00287344
0.00330452
-0.00293187
-0.00298893
0.00341304
0.00295713
-0.0028513
0.00305816
-0.00291464
0.00316132
-0.0029766
0.00326655
-0.0030371
-0.00309617
0.00337379
0.0029232
-0.00294901
0.00302306
-0.0030145
0.00312501
-0.00307855
0.00322901
-0.00314109
-0.00320215
0.00333499
0.00288966
-0.00304559
0.00298836
-0.0031132
0.00308912
-0.00317931
0.0031919
-0.00324387
-0.00330688
0.00329662
0.00285652
-0.00314104
0.00295406
-0.00321074
0.00305364
-0.00327889
0.00315521
-0.00334543
-0.00341036
0.00325869
0.00282375
-0.00323539
0.00292015
-0.00330715
0.00301856
-0.0033773
0.00311893
-0.0034458
-0.0035126
0.00322117
0.00279135
-0.00332863
0.00288663
-0.00340243
0.00298388
-0.00347455
0.00308305
-0.00354497
-0.00361362
0.00318407
0.00275932
-0.00342078
0.00285348
-0.00349659
0.00294958
-0.00357064
0.00304757
-0.00364296
-0.00371342
0.00314737
0.00272766
-0.00351185
0.00282071
-0.00358963
0.00291566
-0.0036656
0.00301248
-0.00373978
-0.00381202
0.00311108
0.00269635
-0.00360186
0.0027883
-0.00368158
0.00288212
-0.00375942
0.00297778
-0.00383544
-0.00390941
0.00307517
0.00266539
-0.0036908
0.00275625
-0.00377244
0.00284895
-0.00385212
0.00294345
-0.00392995
-0.0040056
0.00303965
0.00263478
-0.00377869
0.00272456
-0.00386221
0.00281614
-0.0039437
0.0029095
-0.00402331
-0.00410061
0.00300451
0.00260451
-0.00386554
0.00269321
-0.00395091
0.00278369
-0.00403417
0.00287591
-0.00411553
-0.00419444
0.00296974
0.00257458
-0.00395135
0.00266221
-0.00403855
0.00275159
-0.00412355
0.00284268
-0.00420662
-0.00428709
0.00293533
0.00246019
-0.00394521
0.00254498
-0.00403614
0.00263155
-0.00412513
0.00271984
-0.00421183
0.0028098
-0.00429658
-0.00437858
0.00290128
0.00243193
-0.00402718
0.0025157
-0.00411991
0.00260122
-0.00421065
0.00268843
-0.00429903
0.00277727
-0.00438543
-0.0044689
0.00286759
0.00240398
-0.00410816
0.00248674
-0.00420267
0.00257123
-0.00429513
0.00265735
-0.00438516
0.00274508
-0.00447316
-0.00455806
0.00283425
0.00237634
-0.00418818
0.0024581
-0.00428443
0.00254155
-0.00437858
0.00262661
-0.00447021
0.00271323
-0.00455979
-0.00464607
0.00280124
0.00234901
-0.00426724
0.00242978
-0.0043652
0.0025122
-0.004461
0.00259619
-0.0045542
0.00268171
-0.00464532
-0.00473293
0.00276858
0.00232198
-0.00434534
0.00240176
-0.00444498
0.00248315
-0.00454239
0.00256609
-0.00463714
0.00265052
-0.00472975
-0.00481865
0.00273624
0.00229525
-0.00442249
0.00237405
-0.00452378
0.00245442
-0.00462277
0.00253631
-0.00471903
0.00261965
-0.00481308
-0.00490323
0.00270423
0.00226881
-0.00449871
0.00234663
-0.0046016
0.002426
-0.00470213
0.00250684
-0.00479987
0.00258909
-0.00489533
-0.00498668
0.00267254
0.00224265
-0.00457399
0.00231951
-0.00467846
0.00239787
-0.0047805
0.00247768
-0.00487967
0.00255884
-0.00497649
-0.00506901
0.00264117
0.00221679
-0.00464835
0.00229269
-0.00475436
0.00237005
-0.00485786
0.00244882
-0.00495844
0.00252889
-0.00505656
-0.00515022
0.0026101
0.0021912
-0.00472179
0.00226615
-0.00482931
0.00234251
-0.00493422
0.00242026
-0.00503618
0.00249925
-0.00513556
-0.00523032
0.00257935
0.0021659
-0.00479432
0.00223989
-0.0049033
0.00231527
-0.0050096
0.00239199
-0.0051129
0.0024699
-0.00521347
0.00214086
-0.00486595
0.00221392
-0.00497635
0.00228831
-0.005084
0.002364
-0.00518859
-0.00529031
0.0021161
-0.00493667
0.00218822
-0.00504847
0.00226163
-0.00515742
0.00233631
-0.00526326
0.00209161
-0.0050065
0.00216279
-0.00511965
0.00223523
-0.00522986
-0.00533692
0.00206738
-0.00507545
0.00213763
-0.00518991
0.00220911
-0.00530133
0.00204341
-0.00514352
0.00211274
-0.00525924
-0.00537184
0.0020197
-0.00521071
0.00208812
-0.00532765
-0.00544138
0.00199625
-0.00527704
0.00206375
-0.00539516
0.00197304
-0.0053425
-0.00546175
0.00195009
-0.00540711
-0.00547086
0.00446039
-1.07774e-06
0.0044613
-9.17059e-07
0.00446206
-7.54829e-07
0.00446265
-5.90841e-07
0.00446308
-4.25812e-07
0.00446334
-2.60075e-07
0.00446343
-9.39024e-08
0.00446336
7.24295e-08
0.00446312
2.38652e-07
0.00446271
4.04496e-07
0.00446214
5.69685e-07
0.00446141
7.33937e-07
0.00446051
8.96968e-07
0.00445946
1.05849e-06
0.00445824
1.2182e-06
0.00445686
1.37583e-06
0.00445533
1.53108e-06
0.00445365
1.68369e-06
0.00445181
1.83338e-06
0.00444983
1.97991e-06
0.00444771
2.12305e-06
0.00444545
2.26257e-06
0.00444305
2.3983e-06
0.00444052
2.53004e-06
0.00443786
2.65767e-06
0.00443508
2.78106e-06
0.00443218
2.90012e-06
0.00442917
3.01477e-06
0.00442604
3.12499e-06
0.00442281
3.23076e-06
0.00441948
3.33209e-06
0.00441605
3.42902e-06
0.00441253
3.52162e-06
0.00440892
3.60998e-06
0.00440522
3.6942e-06
0.00440145
3.77441e-06
0.0043976
3.85077e-06
0.00439367
3.92342e-06
0.00438968
3.99256e-06
0.00438562
4.05837e-06
0.0043815
4.12106e-06
0.00437732
4.18083e-06
0.00437308
4.2379e-06
0.00436879
4.2925e-06
0.00436445
4.34485e-06
0.00436005
4.39519e-06
0.00435561
4.44375e-06
0.00435112
4.49075e-06
4.53645e-06
0.00440835
-2.14299e-06
0.00440925
-1.8223e-06
0.00441
-1.49909e-06
0.00441058
-1.17267e-06
0.004411
-8.44269e-07
0.00441125
-5.14525e-07
0.00441134
-1.83946e-07
0.00441127
1.46933e-07
0.00441103
4.77585e-07
0.00441062
8.07478e-07
0.00441006
1.13607e-06
0.00440933
1.46279e-06
0.00440844
1.78709e-06
0.00440739
2.10838e-06
0.00440618
2.42609e-06
0.00440482
2.73964e-06
0.0044033
3.04847e-06
0.00440163
3.35204e-06
0.00439982
3.64981e-06
0.00439785
3.94129e-06
0.00439575
4.22601e-06
0.00439351
4.50355e-06
0.00439113
4.77352e-06
0.00438863
5.03558e-06
0.004386
5.28944e-06
0.00438324
5.53486e-06
0.00438037
5.77166e-06
0.00437739
5.9997e-06
0.00437429
6.21891e-06
0.00437109
6.42926e-06
0.0043678
6.63078e-06
0.0043644
6.82355e-06
0.00436092
7.0077e-06
0.00435734
7.1834e-06
0.00435369
7.35088e-06
0.00434995
7.51038e-06
0.00434614
7.6622e-06
0.00434225
7.80667e-06
0.0043383
7.94414e-06
0.00433429
8.07499e-06
0.00433021
8.19961e-06
0.00432607
8.31844e-06
0.00432188
8.4319e-06
0.00431763
8.54044e-06
0.00431333
8.64452e-06
0.00430898
8.74458e-06
0.00430458
8.8411e-06
0.00430014
8.93453e-06
9.02535e-06
0.00435697
-3.19431e-06
0.00435786
-2.71422e-06
0.00435859
-2.23102e-06
0.00435916
-1.74345e-06
0.00435957
-1.25313e-06
0.00435982
-7.60915e-07
0.0043599
-2.67523e-07
0.00435982
2.26279e-07
0.00435958
7.19721e-07
0.00435917
1.21202e-06
0.00435861
1.70238e-06
0.00435788
2.18995e-06
0.00435699
2.6739e-06
0.00435595
3.15338e-06
0.00435475
3.6275e-06
0.00435339
4.09543e-06
0.00435188
4.55632e-06
0.00435023
5.00934e-06
0.00434842
5.45372e-06
0.00434647
5.8887e-06
0.00434439
6.31359e-06
0.00434216
6.72775e-06
0.00433981
7.13061e-06
0.00433732
7.52166e-06
0.00433471
7.90045e-06
0.00433198
8.26664e-06
0.00432913
8.61996e-06
0.00432617
8.96019e-06
0.0043231
9.28723e-06
0.00431993
9.60104e-06
0.00431666
9.90167e-06
0.00431329
1.01892e-05
0.00430983
1.04639e-05
0.00430629
1.0726e-05
0.00430267
1.09758e-05
0.00429896
1.12137e-05
0.00429519
1.14401e-05
0.00429134
1.16555e-05
0.00428742
1.18605e-05
0.00428344
1.20556e-05
0.0042794
1.22415e-05
0.0042753
1.24186e-05
0.00427114
1.25878e-05
0.00426693
1.27496e-05
0.00426267
1.29047e-05
0.00425836
1.30539e-05
0.00425401
1.31978e-05
0.0042496
1.3337e-05
1.34724e-05
0.00430624
-4.22976e-06
0.00430711
-3.59097e-06
0.00430783
-2.94871e-06
0.00430839
-2.30111e-06
0.00430878
-1.65017e-06
0.00430902
-9.96879e-07
0.0043091
-3.42125e-07
0.00430901
3.13115e-07
0.00430876
9.67849e-07
0.00430835
1.62106e-06
0.00430778
2.27168e-06
0.00430705
2.91862e-06
0.00430617
3.56076e-06
0.00430512
4.19696e-06
0.00430392
4.82608e-06
0.00430257
5.44698e-06
0.00430107
6.05853e-06
0.00429942
6.65966e-06
0.00429762
7.2493e-06
0.00429569
7.82647e-06
0.00429361
8.39023e-06
0.0042914
8.93975e-06
0.00428905
9.47424e-06
0.00428658
9.99305e-06
0.00428399
1.04956e-05
0.00428127
1.09814e-05
0.00427844
1.145e-05
0.0042755
1.19013e-05
0.00427245
1.23351e-05
0.0042693
1.27513e-05
0.00426606
1.315e-05
0.00426271
1.35313e-05
0.00425928
1.38956e-05
0.00425576
1.42431e-05
0.00425217
1.45743e-05
0.00424849
1.48897e-05
0.00424474
1.51898e-05
0.00424092
1.54754e-05
0.00423703
1.57471e-05
0.00423308
1.60057e-05
0.00422907
1.6252e-05
0.00422501
1.64868e-05
0.00422088
1.6711e-05
0.00421671
1.69254e-05
0.00421248
1.71309e-05
0.00420821
1.73285e-05
0.00420388
1.75191e-05
0.00419952
1.77036e-05
1.78828e-05
0.00425615
-5.2471e-06
0.00425701
-4.45044e-06
0.00425771
-3.65004e-06
0.00425825
-2.84351e-06
0.00425863
-2.03316e-06
0.00425886
-1.22008e-06
0.00425892
-4.05309e-07
0.00425882
4.09999e-07
0.00425857
1.22465e-06
0.00425815
2.03738e-06
0.00425757
2.8469e-06
0.00425684
3.65185e-06
0.00425595
4.45085e-06
0.0042549
5.24247e-06
0.00425371
6.02529e-06
0.00425235
6.79788e-06
0.00425085
7.55885e-06
0.00424921
8.30684e-06
0.00424742
9.04053e-06
0.00424548
9.75869e-06
0.00424341
1.04601e-05
0.00424121
1.11438e-05
0.00423888
1.18088e-05
0.00423641
1.24543e-05
0.00423383
1.30794e-05
0.00423113
1.36837e-05
0.00422831
1.42666e-05
0.00422538
1.48279e-05
0.00422235
1.53674e-05
0.00421922
1.5885e-05
0.00421599
1.63807e-05
0.00421266
1.68549e-05
0.00420925
1.73077e-05
0.00420576
1.77397e-05
0.00420218
1.81514e-05
0.00419852
1.85434e-05
0.0041948
1.89165e-05
0.004191
1.92714e-05
0.00418714
1.9609e-05
0.00418322
1.99303e-05
0.00417923
2.02363e-05
0.00417519
2.0528e-05
0.00417109
2.08064e-05
0.00416695
2.10727e-05
0.00416275
2.1328e-05
0.00415851
2.15734e-05
0.00415421
2.18101e-05
0.00414988
2.20391e-05
2.22616e-05
0.00420669
-6.2439e-06
0.00420753
-5.29036e-06
0.00420821
-4.33282e-06
0.00420874
-3.36843e-06
0.0042091
-2.39985e-06
0.00420931
-1.42822e-06
0.00420936
-4.54682e-07
0.00420925
5.19421e-07
0.00420898
1.4927e-06
0.00420856
2.4637e-06
0.00420797
3.43087e-06
0.00420723
4.39261e-06
0.00420634
5.34725e-06
0.00420528
6.2931e-06
0.00420408
7.22845e-06
0.00420273
8.15159e-06
0.00420123
9.06085e-06
0.00419958
9.95458e-06
0.00419779
1.08312e-05
0.00419586
1.16893e-05
0.00419379
1.25273e-05
0.00419159
1.33442e-05
0.00418926
1.41386e-05
0.0041868
1.49096e-05
0.00418423
1.56563e-05
0.00418153
1.6378e-05
0.00417873
1.70742e-05
0.00417581
1.77445e-05
0.00417279
1.83887e-05
0.00416967
1.90066e-05
0.00416645
1.95985e-05
0.00416314
2.01645e-05
0.00415974
2.0705e-05
0.00415626
2.12206e-05
0.0041527
2.17118e-05
0.00414906
2.21796e-05
0.00414536
2.26247e-05
0.00414158
2.30481e-05
0.00413774
2.34509e-05
0.00413383
2.38341e-05
0.00412987
2.4199e-05
0.00412585
2.45469e-05
0.00412178
2.48789e-05
0.00411766
2.51964e-05
0.00411348
2.55007e-05
0.00410926
2.57932e-05
0.004105
2.60752e-05
0.00410069
2.63481e-05
2.66133e-05
0.00415785
-7.21769e-06
0.00415867
-6.10839e-06
0.00415933
-4.99477e-06
0.00415984
-3.87365e-06
0.00416019
-2.74799e-06
0.00416038
-1.61899e-06
0.00416041
-4.87889e-07
0.00416028
6.43815e-07
0.00416
1.77455e-06
0.00415956
2.90265e-06
0.00415897
4.02633e-06
0.00415822
5.14373e-06
0.00415731
6.25292e-06
0.00415625
7.35193e-06
0.00415504
8.43877e-06
0.00415368
9.51143e-06
0.00415218
1.0568e-05
0.00415052
1.16064e-05
0.00414873
1.2625e-05
0.0041468
1.3622e-05
0.00414473
1.45957e-05
0.00414253
1.55446e-05
0.0041402
1.64675e-05
0.00413775
1.7363e-05
0.00413517
1.82303e-05
0.00413248
1.90685e-05
0.00412968
1.9877e-05
0.00412677
2.06553e-05
0.00412375
2.14032e-05
0.00412064
2.21206e-05
0.00411743
2.28075e-05
0.00411413
2.34644e-05
0.00411074
2.40917e-05
0.00410727
2.469e-05
0.00410373
2.526e-05
0.0041001
2.58026e-05
0.00409641
2.63189e-05
0.00409265
2.681e-05
0.00408882
2.72771e-05
0.00408493
2.77215e-05
0.00408099
2.81446e-05
0.00407699
2.85478e-05
0.00407293
2.89326e-05
0.00406883
2.93006e-05
0.00406468
2.96532e-05
0.00406048
2.99921e-05
0.00405623
3.03188e-05
0.00405195
3.06349e-05
3.0942e-05
0.00410963
-8.16598e-06
0.00411042
-6.90217e-06
0.00411106
-5.63359e-06
0.00411154
-4.35689e-06
0.00411187
-3.07534e-06
0.00411204
-1.79012e-06
0.00411206
-5.02608e-07
0.00411192
7.85567e-07
0.00411162
2.07266e-06
0.00411116
3.35679e-06
0.00411055
4.63594e-06
0.00410979
5.908e-06
0.00410887
7.17076e-06
0.0041078
8.42198e-06
0.00410658
9.65937e-06
0.00410521
1.08806e-05
0.0041037
1.20835e-05
0.00410204
1.32658e-05
0.00410024
1.44255e-05
0.0040983
1.55604e-05
0.00409622
1.66688e-05
0.00409402
1.7749e-05
0.00409169
1.87993e-05
0.00408923
1.98185e-05
0.00408666
2.08055e-05
0.00408397
2.17592e-05
0.00408116
2.2679e-05
0.00407826
2.35644e-05
0.00407524
2.4415e-05
0.00407213
2.52309e-05
0.00406893
2.60121e-05
0.00406563
2.67589e-05
0.00406225
2.7472e-05
0.00405879
2.81521e-05
0.00405525
2.87999e-05
0.00405164
2.94165e-05
0.00404795
3.00032e-05
0.0040442
3.05611e-05
0.00404039
3.10916e-05
0.00403651
3.15964e-05
0.00403258
3.20769e-05
0.00402859
3.25347e-05
0.00402456
3.29716e-05
0.00402047
3.33893e-05
0.00401633
3.37895e-05
0.00401215
3.41741e-05
0.00400792
3.45448e-05
0.00400365
3.49034e-05
3.52517e-05
0.00406201
-9.08632e-06
0.00406277
-7.66933e-06
0.00406339
-6.24701e-06
0.00406385
-4.81593e-06
0.00406415
-3.37966e-06
0.0040643
-1.93938e-06
0.00406429
-4.96559e-07
0.00406413
9.47019e-07
0.00406381
2.38944e-06
0.00406334
3.82862e-06
0.00406272
5.2623e-06
0.00406194
6.68812e-06
0.004061
8.10359e-06
0.00405992
9.50617e-06
0.00405869
1.08933e-05
0.0040573
1.22623e-05
0.00405578
1.36108e-05
0.00405411
1.49361e-05
0.0040523
1.62359e-05
0.00405035
1.75081e-05
0.00404827
1.87503e-05
0.00404606
1.99608e-05
0.00404372
2.11378e-05
0.00404126
2.22798e-05
0.00403868
2.33855e-05
0.00403598
2.44538e-05
0.00403318
2.5484e-05
0.00403026
2.64755e-05
0.00402725
2.7428e-05
0.00402414
2.83413e-05
0.00402094
2.92158e-05
0.00401764
3.00518e-05
0.00401427
3.08498e-05
0.00401081
3.16106e-05
0.00400727
3.23354e-05
0.00400366
3.30252e-05
0.00399999
3.36813e-05
0.00399624
3.43051e-05
0.00399244
3.48984e-05
0.00398857
3.54626e-05
0.00398465
3.59997e-05
0.00398067
3.65113e-05
0.00397664
3.69995e-05
0.00397256
3.74662e-05
0.00396844
3.79133e-05
0.00396427
3.83428e-05
0.00396006
3.87567e-05
0.00395581
3.91571e-05
3.95459e-05
0.00401498
-9.9763e-06
0.00401572
-8.40758e-06
0.0040163
-6.83278e-06
0.00401673
-5.24855e-06
0.00401701
-3.65876e-06
0.00401714
-2.06455e-06
0.00401711
-4.67501e-07
0.00401693
1.13047e-06
0.00401659
2.72727e-06
0.0040161
4.32061e-06
0.00401545
5.90798e-06
0.00401465
7.48675e-06
0.0040137
9.05417e-06
0.0040126
1.06074e-05
0.00401135
1.21435e-05
0.00400995
1.36596e-05
0.00400841
1.51528e-05
0.00400673
1.66204e-05
0.0040049
1.80598e-05
0.00400294
1.94683e-05
0.00400085
2.08436e-05
0.00399863
2.21837e-05
0.00399628
2.34864e-05
0.00399381
2.47503e-05
0.00399122
2.59739e-05
0.00398852
2.71559e-05
0.0039857
2.82956e-05
0.00398279
2.93923e-05
0.00397977
3.04456e-05
0.00397666
3.14556e-05
0.00397345
3.24224e-05
0.00397015
3.33465e-05
0.00396678
3.42284e-05
0.00396332
3.50693e-05
0.00395978
3.587e-05
0.00395618
3.6632e-05
0.0039525
3.73567e-05
0.00394876
3.80456e-05
0.00394496
3.87007e-05
0.0039411
3.93236e-05
0.00393718
3.99164e-05
0.00393321
4.04811e-05
0.00392919
4.10197e-05
0.00392512
4.15346e-05
0.00392101
4.20277e-05
0.00391685
4.25014e-05
0.00391265
4.29578e-05
0.0039084
4.33992e-05
4.38277e-05
0.00396853
-1.08336e-05
0.00396924
-9.11469e-06
0.00396979
-7.38872e-06
0.0039702
-5.65263e-06
0.00397045
-3.91052e-06
0.00397055
-2.16349e-06
0.00397049
-4.13239e-07
0.00397029
1.33818e-06
0.00396992
3.08849e-06
0.00396941
4.83517e-06
0.00396874
6.57549e-06
0.00396792
8.30652e-06
0.00396695
1.00252e-05
0.00396583
1.17284e-05
0.00396456
1.34128e-05
0.00396315
1.50754e-05
0.00396159
1.67128e-05
0.00395988
1.83221e-05
0.00395804
1.99002e-05
0.00395607
2.14444e-05
0.00395396
2.2952e-05
0.00395172
2.44208e-05
0.00394936
2.58486e-05
0.00394688
2.72335e-05
0.00394428
2.8574e-05
0.00394156
2.98689e-05
0.00393874
3.11171e-05
0.00393582
3.23181e-05
0.00393279
3.34714e-05
0.00392967
3.4577e-05
0.00392646
3.56352e-05
0.00392316
3.66464e-05
0.00391977
3.76114e-05
0.00391631
3.85312e-05
0.00391277
3.9407e-05
0.00390917
4.02403e-05
0.00390549
4.10326e-05
0.00390175
4.17858e-05
0.00389795
4.25017e-05
0.00389409
4.31824e-05
0.00389018
4.38301e-05
0.00388621
4.4447e-05
0.00388219
4.50353e-05
0.00387813
4.55975e-05
0.00387402
4.61359e-05
0.00386987
4.66529e-05
0.00386568
4.71511e-05
0.00386145
4.76326e-05
4.81001e-05
0.00392266
-1.16561e-05
0.00392333
-9.78853e-06
0.00392385
-7.91275e-06
0.00392423
-6.02609e-06
0.00392445
-4.13286e-06
0.00392452
-2.2341e-06
0.00392444
-3.31629e-07
0.0039242
1.57235e-06
0.00392382
3.47538e-06
0.00392328
5.3747e-06
0.00392259
7.26732e-06
0.00392174
9.15001e-06
0.00392075
1.10194e-05
0.0039196
1.2872e-05
0.00391831
1.47043e-05
0.00391688
1.65127e-05
0.0039153
1.82937e-05
0.00391357
2.0044e-05
0.00391171
2.17603e-05
0.00390972
2.34395e-05
0.00390759
2.50787e-05
0.00390534
2.66755e-05
0.00390296
2.82275e-05
0.00390046
2.97326e-05
0.00389784
3.11893e-05
0.00389512
3.2596e-05
0.00389228
3.39519e-05
0.00388934
3.52562e-05
0.00388631
3.65085e-05
0.00388317
3.77087e-05
0.00387995
3.88573e-05
0.00387664
3.99546e-05
0.00387325
4.10017e-05
0.00386979
4.19994e-05
0.00386624
4.29494e-05
0.00386263
4.38529e-05
0.00385895
4.4712e-05
0.00385521
4.55284e-05
0.00385141
4.63043e-05
0.00384755
4.7042e-05
0.00384363
4.77437e-05
0.00383967
4.84119e-05
0.00383565
4.9049e-05
0.00383159
4.96577e-05
0.00382749
5.02406e-05
0.00382334
5.08002e-05
0.00381915
5.13391e-05
0.00381493
5.18601e-05
5.23657e-05
0.00387734
-1.24417e-05
0.00387798
-1.04271e-05
0.00387847
-8.40286e-06
0.00387881
-6.36695e-06
0.00387901
-4.32377e-06
0.00387905
-2.27434e-06
0.00387893
-2.20575e-07
0.00387867
1.83516e-06
0.00387826
3.8902e-06
0.00387769
5.94155e-06
0.00387697
7.98592e-06
0.0038761
1.00198e-05
0.00387508
1.20394e-05
0.00387391
1.4041e-05
0.0038726
1.60206e-05
0.00387113
1.79744e-05
0.00386953
1.98985e-05
0.00386778
2.17893e-05
0.0038659
2.36431e-05
0.00386388
2.54566e-05
0.00386174
2.72268e-05
0.00385946
2.89509e-05
0.00385706
3.06262e-05
0.00385454
3.22507e-05
0.00385191
3.38226e-05
0.00384917
3.53403e-05
0.00384632
3.68029e-05
0.00384336
3.82095e-05
0.00384031
3.95598e-05
0.00383717
4.08537e-05
0.00383393
4.20916e-05
0.00383061
4.32741e-05
0.00382721
4.44021e-05
0.00382373
4.54769e-05
0.00382018
4.64999e-05
0.00381656
4.74728e-05
0.00381288
4.83976e-05
0.00380913
4.92763e-05
0.00380532
5.01113e-05
0.00380146
5.09049e-05
0.00379755
5.16597e-05
0.00379358
5.23782e-05
0.00378956
5.30633e-05
0.0037855
5.37177e-05
0.0037814
5.43441e-05
0.00377726
5.49454e-05
0.00377307
5.55244e-05
0.00376885
5.6084e-05
5.66269e-05
0.00383259
-1.31885e-05
0.00383319
-1.10284e-05
0.00383364
-8.85718e-06
0.00383395
-6.67331e-06
0.00383411
-4.48135e-06
0.00383411
-2.28224e-06
0.00383397
-7.80381e-08
0.00383368
2.12873e-06
0.00383323
4.33518e-06
0.00383264
6.53804e-06
0.00383189
8.73372e-06
0.00383099
1.09183e-05
0.00382994
1.30878e-05
0.00382874
1.5238e-05
0.0038274
1.73646e-05
0.00382591
1.94634e-05
0.00382428
2.15302e-05
0.00382251
2.35609e-05
0.0038206
2.55517e-05
0.00381856
2.74989e-05
0.00381639
2.93993e-05
0.00381409
3.12498e-05
0.00381166
3.30477e-05
0.00380912
3.47908e-05
0.00380647
3.64769e-05
0.00380371
3.81047e-05
0.00380084
3.96729e-05
0.00379786
4.11809e-05
0.0037948
4.26281e-05
0.00379164
4.40146e-05
0.00378839
4.53408e-05
0.00378505
4.66073e-05
0.00378164
4.78153e-05
0.00377815
4.8966e-05
0.00377459
5.0061e-05
0.00377096
5.11022e-05
0.00376727
5.20917e-05
0.00376351
5.30318e-05
0.0037597
5.39248e-05
0.00375583
5.47734e-05
0.00375191
5.55803e-05
0.00374794
5.63484e-05
0.00374392
5.70805e-05
0.00373986
5.77797e-05
0.00373575
5.84488e-05
0.00373161
5.90909e-05
0.00372742
5.97091e-05
0.0037232
6.03063e-05
6.08857e-05
0.00378837
-1.38946e-05
0.00378893
-1.15908e-05
0.00378935
-9.27392e-06
0.00378962
-6.94339e-06
0.00378974
-4.60375e-06
0.00378972
-2.25589e-06
0.00378954
9.79742e-08
0.00378921
2.45515e-06
0.00378874
4.81251e-06
0.00378811
7.16649e-06
0.00378733
9.51315e-06
0.0037864
1.18483e-05
0.00378532
1.41674e-05
0.00378409
1.64659e-05
0.00378272
1.87391e-05
0.0037812
2.09825e-05
0.00377954
2.31914e-05
0.00377774
2.53616e-05
0.0037758
2.74888e-05
0.00377373
2.95692e-05
0.00377153
3.15991e-05
0.0037692
3.35753e-05
0.00376676
3.54949e-05
0.00376419
3.73556e-05
0.00376151
3.91551e-05
0.00375873
4.08919e-05
0.00375584
4.25648e-05
0.00375284
4.41729e-05
0.00374976
4.5716e-05
0.00374658
4.7194e-05
0.00374331
4.86074e-05
0.00373996
4.99569e-05
0.00373653
5.12437e-05
0.00373303
5.24692e-05
0.00372945
5.36352e-05
0.00372581
5.47436e-05
0.00372211
5.57967e-05
0.00371834
5.6797e-05
0.00371452
5.77471e-05
0.00371064
5.86497e-05
0.00370672
5.95078e-05
0.00370274
6.03244e-05
0.00369872
6.11026e-05
0.00369465
6.18455e-05
0.00369054
6.25564e-05
0.0036864
6.32385e-05
0.00368221
6.38949e-05
0.00367799
6.4529e-05
6.51438e-05
0.00374469
-1.45584e-05
0.00374521
-1.21126e-05
0.00374559
-9.65142e-06
0.00374582
-7.17547e-06
0.00374591
-4.6892e-06
0.00374585
-2.19346e-06
0.00374563
3.09406e-07
0.00374527
2.81648e-06
0.00374476
5.32438e-06
0.0037441
7.8292e-06
0.00374328
1.03266e-05
0.00374232
1.2812e-05
0.00374121
1.52805e-05
0.00373995
1.77271e-05
0.00373854
2.01468e-05
0.00373699
2.25344e-05
0.00373529
2.48852e-05
0.00373346
2.71944e-05
0.00373149
2.94574e-05
0.00372939
3.16702e-05
0.00372716
3.38289e-05
0.00372481
3.593e-05
0.00372233
3.79705e-05
0.00371974
3.99478e-05
0.00371703
4.18596e-05
0.00371422
4.37044e-05
0.0037113
4.54808e-05
0.00370829
4.71881e-05
0.00370518
4.88259e-05
0.00370198
5.03942e-05
0.00369869
5.18936e-05
0.00369533
5.33249e-05
0.00369188
5.46894e-05
0.00368836
5.59885e-05
0.00368477
5.72243e-05
0.00368112
5.83988e-05
0.0036774
5.95145e-05
0.00367362
6.05739e-05
0.00366979
6.158e-05
0.0036659
6.25356e-05
0.00366197
6.34438e-05
0.00365798
6.43079e-05
0.00365395
6.51312e-05
0.00364988
6.5917e-05
0.00364577
6.66687e-05
0.00364162
6.73898e-05
0.00363743
6.80836e-05
0.00363321
6.87535e-05
6.9403e-05
0.00370153
-1.51785e-05
0.00370201
-1.25923e-05
0.00370235
-9.98812e-06
0.00370254
-7.36795e-06
0.00370259
-4.73603e-06
0.00370249
-2.09314e-06
0.00370224
5.58162e-07
0.00370184
3.21476e-06
0.00370129
5.87295e-06
0.00370059
8.52845e-06
0.00369974
1.11765e-05
0.00369874
1.38122e-05
0.00369759
1.643e-05
0.0036963
1.90246e-05
0.00369485
2.15904e-05
0.00369327
2.4122e-05
0.00369154
2.66142e-05
0.00368967
2.90619e-05
0.00368767
3.14602e-05
0.00368553
3.38047e-05
0.00368327
3.60914e-05
0.00368088
3.83165e-05
0.00367838
4.04769e-05
0.00367575
4.25699e-05
0.00367302
4.4593e-05
0.00367018
4.65447e-05
0.00366724
4.84235e-05
0.0036642
5.02287e-05
0.00366106
5.196e-05
0.00365784
5.36174e-05
0.00365453
5.52016e-05
0.00365114
5.67134e-05
0.00364768
5.81543e-05
0.00364414
5.95259e-05
0.00364054
6.08303e-05
0.00363686
6.20697e-05
0.00363313
6.32468e-05
0.00362934
6.43643e-05
0.0036255
6.54252e-05
0.0036216
6.64327e-05
0.00361765
6.739e-05
0.00361366
6.83006e-05
0.00360962
6.9168e-05
0.00360555
6.99956e-05
0.00360143
7.07872e-05
0.00359727
7.15463e-05
0.00359308
7.22764e-05
0.00358885
7.29813e-05
7.36645e-05
0.00365889
-1.57533e-05
0.00365933
-1.30283e-05
0.00365962
-1.02826e-05
0.00365977
-7.51933e-06
0.00365978
-4.74262e-06
0.00365964
-1.95322e-06
0.00365935
8.46113e-07
0.00365891
3.652e-06
0.00365833
6.46037e-06
0.00365759
9.26654e-06
0.0036567
1.20653e-05
0.00365566
1.48512e-05
0.00365447
1.76183e-05
0.00365314
2.03607e-05
0.00365165
2.30726e-05
0.00365003
2.57479e-05
0.00364826
2.83812e-05
0.00364636
3.09668e-05
0.00364432
3.34998e-05
0.00364215
3.59753e-05
0.00363985
3.83892e-05
0.00363743
4.07374e-05
0.00363489
4.30167e-05
0.00363223
4.52242e-05
0.00362947
4.73575e-05
0.0036266
4.94148e-05
0.00362363
5.13948e-05
0.00362056
5.32967e-05
0.0036174
5.51202e-05
0.00361415
5.68655e-05
0.00361082
5.85331e-05
0.00360741
6.01242e-05
0.00360392
6.16403e-05
0.00360036
6.30831e-05
0.00359674
6.44548e-05
0.00359305
6.57579e-05
0.0035893
6.69952e-05
0.0035855
6.81695e-05
0.00358164
6.92841e-05
0.00357773
7.03424e-05
0.00357377
7.13477e-05
0.00356977
7.23037e-05
0.00356572
7.32141e-05
0.00356164
7.40826e-05
0.00355751
7.4913e-05
0.00355335
7.57091e-05
0.00354915
7.64747e-05
0.00354492
7.72135e-05
7.79294e-05
0.00361675
-1.62817e-05
0.00361714
-1.34196e-05
0.00361739
-1.05334e-05
0.0036175
-7.62816e-06
0.00361747
-4.70742e-06
0.00361729
-1.772e-06
0.00361696
1.17511e-06
0.00361648
4.1302e-06
0.00361585
7.08881e-06
0.00361507
1.00458e-05
0.00361414
1.29954e-05
0.00361306
1.59316e-05
0.00361183
1.8848e-05
0.00361045
2.17383e-05
0.00360893
2.4596e-05
0.00360726
2.74148e-05
0.00360546
3.01887e-05
0.00360351
3.29118e-05
0.00360143
3.55787e-05
0.00359922
3.81845e-05
0.00359689
4.07246e-05
0.00359443
4.3195e-05
0.00359185
4.55921e-05
0.00358917
4.7913e-05
0.00358637
5.01553e-05
0.00358347
5.2317e-05
0.00358046
5.43968e-05
0.00357737
5.63941e-05
0.00357418
5.83084e-05
0.0035709
6.01401e-05
0.00356755
6.18899e-05
0.00356411
6.35589e-05
0.0035606
6.51488e-05
0.00355703
6.66614e-05
0.00355338
6.80992e-05
0.00354967
6.94647e-05
0.00354591
7.07609e-05
0.00354209
7.19909e-05
0.00353821
7.3158e-05
0.00353429
7.42658e-05
0.00353032
7.5318e-05
0.0035263
7.63184e-05
0.00352225
7.72707e-05
0.00351815
7.8179e-05
0.00351402
7.90472e-05
0.00350985
7.98793e-05
0.00350564
8.06793e-05
0.00350141
8.14511e-05
8.21987e-05
0.00357511
-1.67626e-05
0.00357545
-1.37647e-05
0.00357566
-1.07395e-05
0.00357573
-7.69308e-06
0.00357565
-4.62892e-06
0.00357542
-1.5478e-06
0.00357505
1.54699e-06
0.00357453
4.65139e-06
0.00357386
7.76045e-06
0.00357304
1.08685e-05
0.00357206
1.39692e-05
0.00357094
1.70559e-05
0.00356966
2.01218e-05
0.00356824
2.31599e-05
0.00356667
2.61633e-05
0.00356496
2.91252e-05
0.00356311
3.20392e-05
0.00356113
3.48992e-05
0.00355901
3.76994e-05
0.00355676
4.04346e-05
0.00355438
4.31e-05
0.00355188
4.56914e-05
0.00354927
4.82052e-05
0.00354654
5.06383e-05
0.00354371
5.29882e-05
0.00354078
5.52529e-05
0.00353774
5.74313e-05
0.00353461
5.95224e-05
0.0035314
6.15262e-05
0.00352809
6.34429e-05
0.00352471
6.52734e-05
0.00352125
6.70189e-05
0.00351772
6.86811e-05
0.00351412
7.02622e-05
0.00351045
7.17647e-05
0.00350672
7.31913e-05
0.00350294
7.45451e-05
0.0034991
7.58294e-05
0.00349521
7.70479e-05
0.00349127
7.82041e-05
0.00348729
7.93019e-05
0.00348326
8.03454e-05
0.00347919
8.13386e-05
0.00347509
8.22856e-05
0.00347094
8.31905e-05
0.00346677
8.40576e-05
0.00346255
8.48909e-05
0.00345831
8.56947e-05
8.64729e-05
0.00353395
-1.71948e-05
0.00353425
-1.40628e-05
0.00353441
-1.08995e-05
0.00353443
-7.71282e-06
0.00353431
-4.50568e-06
0.00353404
-1.279e-06
0.00353362
1.96359e-06
0.00353306
5.21758e-06
0.00353234
8.47748e-06
0.00353147
1.1737e-05
0.00353045
1.49891e-05
0.00352928
1.82267e-05
0.00352796
2.14422e-05
0.00352649
2.46281e-05
0.00352488
2.7777e-05
0.00352312
3.08817e-05
0.00352122
3.39354e-05
0.00351919
3.69316e-05
0.00351703
3.98642e-05
0.00351473
4.27279e-05
0.00351232
4.55175e-05
0.00350978
4.82288e-05
0.00350713
5.0858e-05
0.00350436
5.34019e-05
0.00350149
5.5858e-05
0.00349852
5.82244e-05
0.00349545
6.04997e-05
0.00349229