/*--------------------------------*- C++ -*----------------------------------*\
  =========                 |
  \\      /  F ield         | OpenFOAM: The Open Source CFD Toolbox
   \\    /   O peration     | Website:  https://openfoam.org
    \\  /    A nd           | Version:  7
     \\/     M anipulation  |
\*---------------------------------------------------------------------------*/
FoamFile
{
    version     2.0;
    format      ascii;
    class       volVectorField;
    location    "20";
    object      U;
}
// * * * * * * * * * * * * * * * * * * * * * * * * * * * * * * * * * * * * * //

dimensions      [0 1 -1 0 0 0 0];

internalField   nonuniform List<vector> 
656
(
(0.551874 -0.00234239 3.26624e-22)
(0.564743 -0.00223473 -2.51537e-22)
(0.577391 -0.00212954 -1.70592e-22)
(0.589808 -0.00202714 -1.81315e-23)
(0.601986 -0.00192779 8.18588e-23)
(0.613921 -0.00183171 4.26982e-22)
(0.625608 -0.00173909 -3.74739e-22)
(0.637044 -0.00165005 -1.25141e-22)
(0.648229 -0.0015647 8.23384e-23)
(0.659163 -0.00148311 -3.50823e-23)
(0.66985 -0.00140531 7.96742e-23)
(0.68029 -0.00133135 -5.58408e-23)
(0.690495 -0.0012612 -2.55348e-23)
(0.70046 -0.00119493 -4.24729e-23)
(0.710212 -0.00113241 3.73117e-23)
(0.719729 -0.0010739 2.82261e-23)
(0.72908 -0.00101889 8.61727e-23)
(0.738173 -0.000968538 -7.78545e-24)
(0.747216 -0.000920616 -2.74379e-24)
(0.755888 -0.000879787 3.62474e-23)
(0.764818 -0.00083723 4.9244e-24)
(0.772965 -0.000810326 2.0613e-23)
(0.782236 -0.000766595 9.261e-24)
(0.789398 -0.000766214 1.28487e-23)
(0.800162 -0.000702189 2.09803e-26)
(0.804846 -0.000752416 -7.62503e-24)
(0.819871 -0.000654199 -9.29499e-25)
(0.55476 -0.00700479 2.31901e-21)
(0.567501 -0.00668315 -3.3361e-22)
(0.580025 -0.00636886 -5.72281e-22)
(0.592322 -0.00606288 -2.31722e-22)
(0.604385 -0.00576602 9.92136e-24)
(0.616208 -0.00547892 -1.77766e-22)
(0.627787 -0.00520213 7.44625e-22)
(0.639119 -0.00493604 -4.94675e-22)
(0.650205 -0.00468096 5.77959e-22)
(0.661043 -0.0044371 8.52817e-23)
(0.671638 -0.00420458 -1.19307e-22)
(0.68199 -0.0039835 -6.35562e-23)
(0.692109 -0.00377381 2.40445e-23)
(0.701994 -0.0035757 5.3907e-23)
(0.711668 -0.00338879 -1.87896e-22)
(0.72111 -0.0032139 -4.42125e-23)
(0.730389 -0.00304942 1.51596e-23)
(0.739415 -0.00289888 1.08438e-22)
(0.748392 -0.0027556 1.21731e-23)
(0.757002 -0.00263356 -1.48773e-22)
(0.765871 -0.00250629 1.90005e-23)
(0.773961 -0.00242592 -9.0284e-24)
(0.783174 -0.0022951 9.2563e-24)
(0.790287 -0.00229416 1.67059e-23)
(0.800991 -0.0021026 -6.35152e-25)
(0.80564 -0.00225294 -6.1444e-24)
(0.820587 -0.00195934 1.52144e-24)
(0.560494 -0.0116002 -2.24881e-21)
(0.572982 -0.0110685 1.23753e-23)
(0.585261 -0.010549 2.69616e-21)
(0.59732 -0.0100431 -5.85769e-22)
(0.609154 -0.00955223 2.49909e-22)
(0.620755 -0.00907746 1.75599e-22)
(0.63212 -0.00861968 -2.72198e-22)
(0.643247 -0.00817957 -5.12192e-22)
(0.654134 -0.00775762 -2.06127e-22)
(0.664782 -0.0073542 4.88365e-22)
(0.675194 -0.0069695 -4.38591e-22)
(0.685371 -0.00660371 -5.08725e-22)
(0.695322 -0.00625675 2.62795e-23)
(0.705045 -0.00592891 1.18395e-22)
(0.714564 -0.00561961 3.34628e-22)
(0.723858 -0.00533017 2.2633e-22)
(0.732996 -0.00505796 -2.84893e-22)
(0.741886 -0.00480884 -4.08355e-23)
(0.750733 -0.00457168 1.594e-22)
(0.759219 -0.00436979 -1.3533e-22)
(0.767967 -0.00415908 -1.09598e-22)
(0.775945 -0.00402635 -7.49354e-23)
(0.785043 -0.00380961 -6.79489e-23)
(0.792058 -0.00380873 5.10446e-23)
(0.802642 -0.00349118 3.08416e-25)
(0.807222 -0.00374106 -3.79378e-23)
(0.822014 -0.00325526 4.47191e-23)
(0.569003 -0.0160853 -1.7543e-21)
(0.581116 -0.0153501 -7.08021e-23)
(0.593032 -0.0146316 8.7234e-22)
(0.60474 -0.0139318 5.84305e-22)
(0.616234 -0.0132527 -8.60347e-22)
(0.627507 -0.0125958 -6.97204e-23)
(0.638556 -0.0119622 9.72821e-24)
(0.649377 -0.0113531 -2.92194e-22)
(0.659972 -0.010769 9.9882e-22)
(0.670338 -0.0102104 -5.78647e-22)
(0.680479 -0.00967777 6.00631e-23)
(0.690396 -0.00917122 -2.54531e-22)
(0.700098 -0.0086907 1.64126e-22)
(0.709582 -0.00823664 1.18058e-22)
(0.718872 -0.00780819 -5.34216e-22)
(0.727947 -0.00740727 -2.90458e-22)
(0.736875 -0.00703016 -1.59359e-23)
(0.745564 -0.00668511 -1.85776e-23)
(0.754218 -0.00635652 2.13493e-22)
(0.76252 -0.00607701 2.48329e-22)
(0.771089 -0.00578497 1.71449e-22)
(0.7789 -0.00560167 1.67044e-22)
(0.787827 -0.00530093 -8.03181e-23)
(0.794698 -0.00530119 -4.03404e-23)
(0.805104 -0.00486017 -9.72378e-24)
(0.809583 -0.00520863 -3.77707e-24)
(0.824143 -0.00453589 1.15267e-22)
(0.580178 -0.0204186 2.16914e-22)
(0.591801 -0.0194889 1.95577e-21)
(0.603242 -0.01858 -2.33272e-21)
(0.61449 -0.0176947 4.46884e-22)
(0.625539 -0.0168352 -3.27556e-21)
(0.636383 -0.0160037 1.94499e-21)
(0.647018 -0.0152016 -2.20046e-21)
(0.657441 -0.0144302 1.88923e-21)
(0.667651 -0.0136904 1.22573e-21)
(0.677649 -0.0129828 -2.00454e-21)
(0.687435 -0.012308 -1.06903e-22)
(0.697012 -0.0116661 3.82303e-22)
(0.706388 -0.0110571 5.69171e-22)
(0.715559 -0.0104816 -5.87141e-22)
(0.724549 -0.0099385 4.39128e-22)
(0.733337 -0.00943028 1.31656e-22)
(0.741989 -0.00895218 3.12076e-22)
(0.750414 -0.00851481 -4.97087e-22)
(0.758815 -0.00809815 -5.45269e-23)
(0.766876 -0.00774412 -2.73367e-22)
(0.77521 -0.00737363 7.32203e-25)
(0.782803 -0.00714223 -1.47137e-22)
(0.791506 -0.00676017 1.45398e-22)
(0.798186 -0.00676298 -3.59652e-23)
(0.808359 -0.00620201 -1.10461e-23)
(0.812704 -0.00664773 1.15557e-22)
(0.826961 -0.00579526 -2.50864e-23)
(0.593878 -0.0245614 2.59887e-21)
(0.604903 -0.0234485 -3.92061e-21)
(0.615764 -0.0223601 9.11781e-22)
(0.626451 -0.0212995 1.53866e-21)
(0.636958 -0.0202696 6.11852e-22)
(0.647278 -0.0192729 -8.21677e-22)
(0.657408 -0.0183112 -7.584e-22)
(0.667345 -0.0173861 -7.39751e-22)
(0.677087 -0.0164987 2.30999e-21)
(0.686634 -0.0156498 -7.86572e-22)
(0.695988 -0.0148399 -1.23627e-21)
(0.705149 -0.0140695 -9.21099e-22)
(0.714126 -0.0133384 1.90126e-21)
(0.722915 -0.0126474 -1.25679e-21)
(0.731539 -0.0119953 1.21142e-21)
(0.739975 -0.011385 -9.33742e-23)
(0.74829 -0.0108108 1.60582e-22)
(0.756393 -0.0102857 1.74458e-22)
(0.764484 -0.00978519 2.05089e-22)
(0.77225 -0.0093605 2.21248e-23)
(0.780297 -0.00891518 -1.38412e-23)
(0.787622 -0.00863879 -6.57294e-24)
(0.79605 -0.00817875 -2.39786e-22)
(0.802498 -0.0081859 1.3277e-22)
(0.812383 -0.00750941 3.04013e-23)
(0.816565 -0.00805069 -7.11038e-23)
(0.830448 -0.00702756 -1.34299e-22)
(0.609931 -0.0284785 -3.15801e-21)
(0.62026 -0.0271956 5.55651e-22)
(0.630446 -0.0259404 7.00126e-21)
(0.64048 -0.0247168 -8.82156e-22)
(0.650355 -0.0235282 -2.18328e-21)
(0.660066 -0.0223775 1.44157e-21)
(0.669608 -0.0212668 7.70104e-22)
(0.678978 -0.020198 -4.14449e-22)
(0.688174 -0.0191725 1.86634e-21)
(0.697196 -0.0181912 -1.63726e-21)
(0.706046 -0.0172548 4.453e-22)
(0.714722 -0.0163639 -9.09174e-22)
(0.723234 -0.0155183 4.62655e-22)
(0.731576 -0.0147189 1.34251e-21)
(0.739772 -0.0139644 -1.34321e-21)
(0.747797 -0.0132583 1.2509e-22)
(0.755719 -0.0125938 4.53841e-22)
(0.763446 -0.0119862 -1.71839e-22)
(0.771174 -0.0114069 -7.14637e-22)
(0.778596 -0.0109161 3.91059e-22)
(0.786306 -0.0104003 6.48335e-23)
(0.793318 -0.0100826 3.5474e-23)
(0.801424 -0.00954856 1.64329e-22)
(0.807599 -0.00956212 -2.52246e-22)
(0.817148 -0.00877542 4.66052e-24)
(0.82114 -0.00941017 -3.61899e-23)
(0.834582 -0.00822714 6.38535e-23)
(0.628141 -0.0321382 4.06356e-21)
(0.637686 -0.0307005 1.29905e-21)
(0.647112 -0.029293 -4.02849e-22)
(0.656411 -0.0279204 -9.98032e-22)
(0.665575 -0.0265863 6.82613e-21)
(0.674599 -0.0252941 -3.43372e-21)
(0.683478 -0.0240465 -1.40212e-21)
(0.69221 -0.0228454 -9.34805e-22)
(0.700791 -0.0216926 8.02492e-22)
(0.709221 -0.0205891 3.41875e-22)
(0.717502 -0.0195359 -2.80613e-22)
(0.725632 -0.0185335 1.04516e-21)
(0.733618 -0.0175819 -1.04006e-21)
(0.741457 -0.0166822 -2.96475e-22)
(0.749169 -0.0158328 -1.51101e-22)
(0.756731 -0.0150379 7.09911e-22)
(0.764208 -0.0142896 1.7751e-22)
(0.771509 -0.0136059 -3.71926e-22)
(0.778828 -0.0129533 7.73398e-22)
(0.785859 -0.0124017 -6.2176e-22)
(0.793188 -0.0118203 -4.66974e-23)
(0.799846 -0.0114654 1.18746e-23)
(0.807587 -0.010862 -9.49122e-23)
(0.813454 -0.0108843 4.08422e-23)
(0.822619 -0.0099935 1.6827e-23)
(0.826397 -0.0107192 1.07639e-22)
(0.839338 -0.0093886 -1.75281e-22)
(0.648287 -0.0355135 7.38453e-21)
(0.656972 -0.0339377 -5.03107e-21)
(0.665565 -0.032394 5.45158e-22)
(0.674057 -0.0308874 -2.10106e-21)
(0.682442 -0.0294224 9.36262e-23)
(0.690713 -0.0280027 6.88892e-21)
(0.698865 -0.0266312 -6.65175e-21)
(0.706896 -0.0253104 8.52799e-22)
(0.714802 -0.0240421 1.89247e-21)
(0.722583 -0.0228277 -1.68612e-23)
(0.730238 -0.0216681 5.88313e-22)
(0.737767 -0.0205642 -2.5693e-22)
(0.745176 -0.0195161 7.60837e-22)
(0.752461 -0.0185249 -1.59008e-21)
(0.759641 -0.0175889 1.30785e-22)
(0.766693 -0.0167129 -3.68813e-22)
(0.77368 -0.0158882 5.93313e-22)
(0.780512 -0.0151349 -5.30338e-22)
(0.787379 -0.0144155 -2.10737e-22)
(0.79398 -0.0138087 1.16022e-23)
(0.800888 -0.0131672 -6.9568e-23)
(0.807155 -0.0127797 1.35518e-22)
(0.814491 -0.012112 4.67612e-23)
(0.82002 -0.0121456 -1.08781e-22)
(0.828758 -0.0111576 -2.16502e-23)
(0.832301 -0.0119715 3.7638e-23)
(0.844684 -0.0105068 1.0057e-22)
(0.670131 -0.0385823 2.21433e-21)
(0.677894 -0.0368862 3.08852e-21)
(0.685593 -0.0352233 -6.10225e-21)
(0.69322 -0.0335992 1.52377e-21)
(0.700768 -0.0320189 -2.68365e-21)
(0.70823 -0.0304864 6.26004e-22)
(0.715602 -0.0290051 -1.54328e-21)
(0.72288 -0.0275779 2.73518e-21)
(0.730061 -0.0262068 -1.74752e-21)
(0.737142 -0.0248934 4.65639e-21)
(0.744125 -0.0236388 -2.89163e-21)
(0.751008 -0.0224442 1.14827e-21)
(0.757796 -0.0213095 -4.72945e-22)
(0.764483 -0.0202362 -2.01994e-22)
(0.77109 -0.0192225 3.82209e-22)
(0.777592 -0.0182739 4.93771e-22)
(0.78405 -0.0173804 -8.90623e-22)
(0.790376 -0.0165649 3.6695e-22)
(0.796755 -0.0157853 -4.48147e-23)
(0.802891 -0.0151297 -3.87812e-23)
(0.809344 -0.0144339 -1.20832e-22)
(0.815189 -0.0140187 -6.59264e-23)
(0.822087 -0.0132923 9.43357e-23)
(0.827248 -0.0133398 2.42865e-23)
(0.835523 -0.0122621 -9.79163e-24)
(0.838814 -0.0131609 -8.90825e-23)
(0.850587 -0.0115768 -2.79351e-23)
(0.693423 -0.0413272 -4.08212e-21)
(0.700214 -0.0395297 6.43001e-21)
(0.706972 -0.0377655 -5.91071e-21)
(0.713687 -0.036041 -1.18547e-21)
(0.720353 -0.0343616 -1.37005e-22)
(0.726962 -0.0327318 3.26788e-21)
(0.733511 -0.0311556 -1.35825e-21)
(0.739995 -0.0296359 4.61808e-21)
(0.74641 -0.0281751 -7.62801e-22)
(0.752754 -0.0267753 -2.64991e-21)
(0.759027 -0.0254376 7.72451e-22)
(0.765225 -0.0241633 -2.6918e-21)
(0.771356 -0.0229526 1.46159e-21)
(0.777411 -0.0218073 1.67777e-22)
(0.783411 -0.0207252 -6.21129e-22)
(0.78933 -0.0197127 -5.19094e-22)
(0.795229 -0.0187587 -3.19969e-22)
(0.801017 -0.0178886 2.46314e-22)
(0.806878 -0.017056 1.90933e-23)
(0.812521 -0.016358 2.44453e-22)
(0.81849 -0.0156141 3.6863e-22)
(0.823886 -0.0151765 4.72613e-24)
(0.830317 -0.0143974 -1.07436e-22)
(0.835089 -0.0144613 2.52249e-22)
(0.842868 -0.013302 4.69187e-23)
(0.845892 -0.0142822 -9.43685e-23)
(0.857011 -0.0125942 2.61113e-22)
(0.717901 -0.0437366 -4.6495e-21)
(0.723686 -0.0418568 6.08623e-21)
(0.729467 -0.0400098 -3.02074e-21)
(0.735238 -0.0382024 5.52018e-21)
(0.740989 -0.0364406 -1.80894e-22)
(0.746714 -0.0347294 -6.23031e-21)
(0.752409 -0.0330732 -2.34028e-22)
(0.758068 -0.0314753 1.98371e-21)
(0.763687 -0.0299386 -7.63003e-22)
(0.769264 -0.0284651 7.71834e-22)
(0.774798 -0.0270565 1.45347e-22)
(0.780286 -0.0257141 1.20931e-21)
(0.785732 -0.0244382 -1.05642e-21)
(0.791129 -0.023231 7.47306e-22)
(0.796496 -0.0220902 1.69784e-21)
(0.801806 -0.0210227 3.25842e-22)
(0.80712 -0.0200167 2.06292e-22)
(0.812347 -0.0191 -7.03287e-22)
(0.817667 -0.0182218 4.81207e-22)
(0.822793 -0.0174882 5.36916e-22)
(0.828256 -0.0167027 -2.87832e-22)
(0.833182 -0.0162479 9.08279e-23)
(0.839123 -0.0154222 -1.20169e-23)
(0.843488 -0.0155053 -3.77983e-24)
(0.850745 -0.0142731 1.72692e-23)
(0.853491 -0.0153306 9.91305e-23)
(0.863918 -0.0135547 -1.92383e-23)
(0.743302 -0.0458036 -3.85116e-21)
(0.748059 -0.0438612 1.20985e-20)
(0.752844 -0.0419499 -8.0245e-22)
(0.757649 -0.0400772 -6.75161e-21)
(0.762465 -0.0382498 2.93117e-21)
(0.767287 -0.0364732 1.25904e-21)
(0.772107 -0.0347522 -2.11048e-21)
(0.776922 -0.0330905 2.39842e-21)
(0.781726 -0.0314914 1.08605e-21)
(0.786517 -0.0299572 -9.69427e-22)
(0.791293 -0.0284898 1.33221e-21)
(0.79605 -0.0270909 -5.99084e-22)
(0.800793 -0.0257609 -1.90945e-21)
(0.805514 -0.0245022 1.04442e-21)
(0.81023 -0.0233123 -2.03754e-22)
(0.814915 -0.0221992 -5.04516e-22)
(0.819626 -0.0211497 4.20967e-22)
(0.824275 -0.0201943 -5.60326e-22)
(0.829036 -0.0192781 -3.97761e-23)
(0.83363 -0.0185157 -2.14596e-22)
(0.838569 -0.0176953 1.68112e-22)
(0.843011 -0.0172287 -2.98572e-22)
(0.848444 -0.016363 2.61355e-22)
(0.852389 -0.0164678 -3.43396e-22)
(0.8591 -0.0151716 3.59455e-23)
(0.861563 -0.0163021 -4.62618e-23)
(0.871265 -0.0144546 -2.2085e-22)
(0.773086 -0.0455413 5.38519e-21)
(0.776867 -0.0435841 -2.31181e-21)
(0.780698 -0.0416636 -1.23223e-21)
(0.784571 -0.0397872 -2.5886e-21)
(0.78848 -0.0379609 -2.47236e-21)
(0.792418 -0.03619 4.86261e-21)
(0.796379 -0.0344787 -1.72937e-21)
(0.800359 -0.0328307 -1.98771e-21)
(0.804354 -0.0312487 1.45637e-21)
(0.808363 -0.0297347 -1.81261e-21)
(0.81238 -0.0282908 1.3725e-21)
(0.81641 -0.0269174 -5.94089e-22)
(0.820444 -0.0256175 1.47046e-21)
(0.824499 -0.0243883 -2.02784e-21)
(0.828548 -0.0232386 4.50612e-22)
(0.832646 -0.0221542 6.00668e-22)
(0.836707 -0.0211683 -1.20297e-22)
(0.840899 -0.0202215 -5.57025e-22)
(0.844951 -0.0194372 5.48123e-22)
(0.849355 -0.0185886 4.67712e-22)
(0.853303 -0.0181156 -4.09135e-22)
(0.858215 -0.0172164 -1.05896e-22)
(0.861733 -0.0173453 -1.55815e-22)
(0.867882 -0.0159944 3.36246e-23)
(0.870059 -0.0171933 9.35306e-23)
(0.879011 -0.0152906 5.79919e-24)
(0.798522 -0.0469003 -7.37765e-21)
(0.801303 -0.0449149 -6.57495e-22)
(0.804165 -0.0429635 -4.19463e-21)
(0.807099 -0.0410541 2.33649e-21)
(0.810098 -0.0391934 1.39866e-21)
(0.813155 -0.0373872 -1.54029e-21)
(0.816264 -0.0356402 1.07327e-21)
(0.819421 -0.0339564 2.82192e-21)
(0.82262 -0.032339 1.94235e-21)
(0.825861 -0.0307902 -3.09355e-21)
(0.829137 -0.0293125 2.27545e-21)
(0.832452 -0.0279065 -3.2991e-21)
(0.835797 -0.0265753 7.44955e-22)
(0.839188 -0.0253164 3.72701e-22)
(0.842597 -0.0241391 1.07145e-21)
(0.84608 -0.0230284 -5.98351e-22)
(0.849549 -0.0220198 -7.56721e-22)
(0.853167 -0.0210499 2.94992e-22)
(0.856673 -0.0202506 -3.0583e-22)
(0.860537 -0.0193804 -1.31032e-22)
(0.863987 -0.0189063 -2.96829e-22)
(0.868371 -0.0179802 2.60255e-22)
(0.871459 -0.0181353 9.51621e-23)
(0.877036 -0.0167393 2.09404e-23)
(0.878928 -0.0180014 -3.21302e-23)
(0.887111 -0.0160596 5.65119e-23)
(0.824131 -0.0479441 9.33523e-21)
(0.82593 -0.0459478 4.00952e-24)
(0.827838 -0.0439819 -1.03326e-21)
(0.829847 -0.042055 -4.13809e-21)
(0.831949 -0.0401745 3.5774e-21)
(0.834137 -0.0383469 2.30464e-21)
(0.836406 -0.0365775 2.67181e-23)
(0.838749 -0.0348705 -3.30013e-21)
(0.841161 -0.0332296 -1.19652e-22)
(0.843641 -0.0316575 -5.74916e-23)
(0.846183 -0.0301569 2.51334e-21)
(0.84879 -0.0287285 1.16511e-21)
(0.851451 -0.027376 -9.9569e-22)
(0.854183 -0.0260965 1.15909e-21)
(0.856957 -0.0249004 6.61922e-22)
(0.859826 -0.0237716 -1.94811e-21)
(0.862707 -0.022748 8.00157e-22)
(0.865753 -0.0217624 3.12396e-22)
(0.868714 -0.0209546 -4.87255e-22)
(0.87204 -0.0200694 -3.39422e-23)
(0.874992 -0.0195992 -1.1956e-23)
(0.878848 -0.0186529 -2.35417e-22)
(0.881508 -0.018836 1.0299e-22)
(0.886506 -0.0174046 4.65119e-24)
(0.888118 -0.0187246 2.85617e-23)
(0.895519 -0.0167593 -6.45968e-24)
(0.849692 -0.0486842 -5.92441e-21)
(0.850536 -0.046693 1.25292e-20)
(0.851516 -0.0447278 -1.36756e-20)
(0.852624 -0.0427979 4.10117e-21)
(0.853852 -0.0409115 -3.38315e-21)
(0.855193 -0.0390757 2.95943e-21)
(0.85664 -0.0372962 2.35946e-21)
(0.858187 -0.035578 -4.72928e-21)
(0.85983 -0.033925 3.6719e-21)
(0.861566 -0.0323404 -9.37309e-22)
(0.863388 -0.0308271 -1.21169e-21)
(0.865299 -0.0293861 -2.49757e-21)
(0.867289 -0.0280215 1.03879e-21)
(0.869373 -0.0267304 2.61221e-21)
(0.871522 -0.0255237 -2.41584e-21)
(0.873788 -0.0243847 1.46345e-21)
(0.876088 -0.0233536 -8.91587e-22)
(0.878571 -0.0223593 -4.98581e-23)
(0.880995 -0.0215494 -9.68414e-24)
(0.883787 -0.0206555 2.6594e-22)
(0.88625 -0.020194 2.41945e-22)
(0.88958 -0.0192341 4.54427e-23)
(0.891819 -0.0194467 -2.31815e-22)
(0.896238 -0.0179895 1.51315e-22)
(0.89758 -0.0193616 -1.21249e-22)
(0.904192 -0.0173876 -4.91452e-23)
(0.874996 -0.0491471 1.06008e-21)
(0.874922 -0.0471747 3.84507e-21)
(0.87501 -0.0452231 2.17497e-21)
(0.875251 -0.0433026 1.00587e-20)
(0.875636 -0.0414221 -4.92912e-21)
(0.876159 -0.0395892 3.44133e-21)
(0.876812 -0.0378105 9.37419e-22)
(0.87759 -0.0360913 -3.70343e-21)
(0.878487 -0.0344361 -1.02402e-21)
(0.879501 -0.0328484 6.01799e-22)
(0.880624 -0.0313314 -5.5691e-22)
(0.88186 -0.0298865 1.50661e-21)
(0.883197 -0.0285181 -2.39142e-22)
(0.884651 -0.0272231 -7.40905e-22)
(0.886192 -0.0260135 1.73372e-21)
(0.887869 -0.0248714 -8.43054e-22)
(0.889603 -0.0238395 9.7371e-22)
(0.891536 -0.0228429 -5.78835e-22)
(0.893436 -0.0220367 7.22894e-23)
(0.895706 -0.02114 -1.83554e-22)
(0.89769 -0.0206914 2.55331e-22)
(0.900503 -0.0197243 -8.54272e-23)
(0.902332 -0.0199671 -2.38946e-23)
(0.906177 -0.0184942 -6.55567e-23)
(0.90726 -0.0199113 7.72606e-23)
(0.913083 -0.0179433 -1.90166e-23)
(0.899855 -0.0493663 1.37444e-20)
(0.898909 -0.0474236 -4.15162e-21)
(0.898148 -0.0454959 4.35042e-21)
(0.897562 -0.0435945 1.43985e-21)
(0.897144 -0.041729 -9.49879e-21)
(0.896885 -0.039908 6.97091e-21)
(0.896778 -0.0381385 1.88857e-21)
(0.896819 -0.0364265 -9.16052e-22)
(0.897001 -0.034777 -6.48235e-22)
(0.897322 -0.0331937 2.47706e-21)
(0.897775 -0.0316805 5.46546e-22)
(0.898361 -0.0302388 -1.8187e-21)
(0.89907 -0.0288734 -1.29067e-22)
(0.899915 -0.0275813 8.50114e-23)
(0.90087 -0.0263752 -2.34262e-22)
(0.90198 -0.0252362 -4.47061e-22)
(0.903167 -0.0242093 3.08703e-22)
(0.904567 -0.0232161 1.00771e-21)
(0.90596 -0.0224186 -6.84865e-22)
(0.907724 -0.0215246 4.77937e-22)
(0.909245 -0.0210925 -8.9931e-23)
(0.911555 -0.0201244 -2.15981e-22)
(0.912989 -0.0203974 2.2626e-22)
(0.916268 -0.0189193 -2.23504e-23)
(0.917109 -0.020373 6.7312e-24)
(0.922146 -0.0184254 4.10385e-23)
(0.924102 -0.049279 1.23736e-20)
(0.922336 -0.0473844 -2.12294e-20)
(0.920775 -0.0454976 7.06465e-21)
(0.91941 -0.0436309 -2.32353e-21)
(0.918231 -0.041795 -7.79061e-24)
(0.917233 -0.0399993 5.2983e-22)
(0.916408 -0.0382518 4.94539e-21)
(0.91575 -0.0365589 9.5571e-23)
(0.915253 -0.0349262 2.07375e-21)
(0.914915 -0.033358 -2.56314e-21)
(0.914729 -0.0318585 -2.0685e-21)
(0.914696 -0.0304295 7.54186e-22)
(0.914806 -0.0290761 2.34431e-22)
(0.915072 -0.0277953 2.16979e-21)
(0.915466 -0.0266006 -1.55152e-21)
(0.916033 -0.0254723 -1.09081e-22)
(0.916698 -0.0244575 -1.01176e-22)
(0.917588 -0.0234744 2.84716e-23)
(0.918496 -0.0226918 5.45482e-22)
(0.919773 -0.0218063 -2.30576e-22)
(0.920852 -0.0213957 -1.12266e-22)
(0.922675 -0.0204322 1.12232e-22)
(0.923733 -0.0207378 -1.03852e-22)
(0.92646 -0.019262 -2.50356e-23)
(0.927077 -0.0207501 -1.74736e-23)
(0.931338 -0.0188298 -2.14871e-24)
(0.941829 -0.0487883 0)
(0.939543 -0.0469587 0)
(0.937471 -0.0451304 0)
(0.935604 -0.0433166 0)
(0.933933 -0.0415286 0)
(0.932453 -0.0397764 0)
(0.931155 -0.0380683 0)
(0.930034 -0.0364115 0)
(0.929085 -0.034812 0)
(0.928304 -0.0332743 0)
(0.927684 -0.0318031 0)
(0.927228 -0.0304003 0)
(0.926925 -0.0290715 0)
(0.926786 -0.0278135 0)
(0.926786 -0.0266408 0)
(0.926967 -0.0255325 0)
(0.927256 -0.0245384 0)
(0.927776 -0.0235727 0)
(0.928327 -0.0228112 0)
(0.929242 -0.0219396 0)
(0.929987 -0.021554 0)
(0.931437 -0.0205978 0)
(0.932207 -0.0209378 0)
(0.934501 -0.0194603 0)
(0.93494 -0.0209913 0)
(0.938583 -0.0190781 0)
(0.955051 -0.0483215 0)
(0.9524 -0.0465436 0)
(0.949967 -0.044763 0)
(0.947745 -0.042993 0)
(0.945725 -0.0412454 0)
(0.943899 -0.0395305 0)
(0.94226 -0.037857 0)
(0.940805 -0.0362321 0)
(0.939525 -0.0346622 0)
(0.93842 -0.0331521 0)
(0.937481 -0.0317065 0)
(0.936711 -0.0303275 0)
(0.936098 -0.0290212 0)
(0.935656 -0.027784 0)
(0.935357 -0.0266314 0)
(0.935244 -0.025541 0)
(0.935245 -0.0245655 0)
(0.935478 -0.0236149 0)
(0.935752 -0.022872 0)
(0.936383 -0.0220117 0)
(0.936866 -0.0216473 0)
(0.938021 -0.0206963 0)
(0.938558 -0.0210642 0)
(0.94051 -0.0195824 0)
(0.940798 -0.02115 0)
(0.94396 -0.0192364 0)
(0.968698 -0.0477678 0)
(0.965684 -0.0460462 0)
(0.962892 -0.0443176 0)
(0.960315 -0.0425957 0)
(0.957944 -0.0408928 0)
(0.955771 -0.0392191 0)
(0.953791 -0.037584 0)
(0.951998 -0.0359948 0)
(0.950385 -0.0344581 0)
(0.948952 -0.0329788 0)
(0.947689 -0.0315622 0)
(0.946601 -0.0302101 0)
(0.945675 -0.0289292 0)
(0.944923 -0.0277155 0)
(0.94432 -0.0265856 0)
(0.943906 -0.0255157 0)
(0.943613 -0.0245611 0)
(0.943552 -0.0236278 0)
(0.943541 -0.0229054 0)
(0.94388 -0.0220585 0)
(0.944093 -0.0217166 0)
(0.944943 -0.0207726 0)
(0.945241 -0.0211692 0)
(0.946836 -0.0196857 0)
(0.946969 -0.0212881 0)
(0.94963 -0.0193788 0)
(0.982744 -0.0471206 0)
(0.979371 -0.0454606 0)
(0.976224 -0.043789 0)
(0.973294 -0.0421199 0)
(0.970574 -0.0404658 0)
(0.968056 -0.0388376 0)
(0.965734 -0.0372447 0)
(0.963603 -0.0356948 0)
(0.961657 -0.0341948 0)
(0.959893 -0.0327498 0)
(0.958306 -0.0313653 0)
(0.956896 -0.0300431 0)
(0.955652 -0.0287906 0)
(0.954588 -0.0276031 0)
(0.953676 -0.0264985 0)
(0.952957 -0.0254516 0)
(0.952363 -0.0245201 0)
(0.952002 -0.0236066 0)
(0.951701 -0.0229065 0)
(0.951739 -0.0220753 0)
(0.951676 -0.021757 0)
(0.95221 -0.0208232 0)
(0.952264 -0.0212474 0)
(0.953487 -0.0197678 0)
(0.953461 -0.0213995 0)
(0.9556 -0.0195035 0)
(0.997154 -0.0463691 0)
(0.993431 -0.0447762 0)
(0.989934 -0.0431668 0)
(0.986658 -0.0415555 0)
(0.983593 -0.0399551 0)
(0.980733 -0.0383769 0)
(0.978072 -0.0368305 0)
(0.975606 -0.0353241 0)
(0.973327 -0.0338647 0)
(0.971234 -0.0324577 0)
(0.969321 -0.0311088 0)
(0.967588 -0.02982 0)
(0.966026 -0.028599 0)
(0.964646 -0.0274409 0)
(0.963423 -0.0263645 0)
(0.962394 -0.0253434 0)
(0.961496 -0.0244376 0)
(0.96083 -0.0235464 0)
(0.819871 0.000654031 8.76781e-25)
)
;

boundaryField
{
    inlet
    {
        type            uniformFixedValue;
        uniformValue    constant (1 0 0);
        value           nonuniform 0();
    }
    outlet
    {
        type            pressureInletOutletVelocity;
        value           nonuniform List<vector> 
25
(
(0.938583 -0.0190781 0)
(0.94396 -0.0192364 0)
(0.94963 -0.0193788 0)
(0.9556 -0.0195035 0)
(0.819871 -0.000654199 -9.29499e-25)
(0.820587 -0.00195934 1.52144e-24)
(0.822014 -0.00325526 4.47191e-23)
(0.824143 -0.00453589 1.15267e-22)
(0.826961 -0.00579526 -2.50864e-23)
(0.830448 -0.00702756 -1.34299e-22)
(0.834582 -0.00822714 6.38535e-23)
(0.839338 -0.0093886 -1.75281e-22)
(0.844684 -0.0105068 1.0057e-22)
(0.850587 -0.0115768 -2.79351e-23)
(0.857011 -0.0125942 2.61113e-22)
(0.863918 -0.0135547 -1.92383e-23)
(0.871265 -0.0144546 -2.2085e-22)
(0.879011 -0.0152906 5.79919e-24)
(0.887111 -0.0160596 5.65119e-23)
(0.895519 -0.0167593 -6.45968e-24)
(0.904192 -0.0173876 -4.91452e-23)
(0.913083 -0.0179433 -1.90166e-23)
(0.922146 -0.0184254 4.10385e-23)
(0.931338 -0.0188298 -2.14871e-24)
(0.819871 0.000654031 8.76781e-25)
)
;
    }
    cylinder
    {
        type            fixedValue;
        value           nonuniform 0();
    }
    top
    {
        type            symmetryPlane;
    }
    bottom
    {
        type            symmetryPlane;
    }
    defaultFaces
    {
        type            empty;
    }
    procBoundary11to7
    {
        type            processor;
        value           nonuniform List<vector> 
28
(
(0.551874 0.00234242 -4.1056e-22)
(0.564743 0.00223477 1.33105e-22)
(0.577391 0.00212959 -5.63027e-23)
(0.589808 0.00202719 7.29875e-23)
(0.601986 0.00192785 5.92532e-23)
(0.613921 0.00183179 -4.53898e-22)
(0.625608 0.00173918 2.15734e-22)
(0.637044 0.00165015 -7.40706e-23)
(0.648229 0.00156481 -9.92567e-23)
(0.659163 0.00148323 -5.50542e-23)
(0.66985 0.00140544 -2.09795e-23)
(0.68029 0.00133148 -4.27768e-23)
(0.690495 0.00126134 3.96567e-23)
(0.70046 0.00119506 -4.41287e-23)
(0.710212 0.00113253 1.05673e-22)
(0.719729 0.00107402 4.69097e-23)
(0.72908 0.001019 2.2653e-23)
(0.738173 0.000968628 -5.25698e-23)
(0.747216 0.000920693 3.94546e-23)
(0.755888 0.00087985 3.08765e-23)
(0.764818 0.00083727 9.44252e-24)
(0.772965 0.000810346 8.03236e-24)
(0.782236 0.000766596 1.13482e-23)
(0.789398 0.000766197 9.6171e-24)
(0.800162 0.000702177 6.11853e-25)
(0.804846 0.000752265 -7.34939e-24)
(0.820587 0.0019592 2.46063e-24)
(0.804846 0.000752265 -7.34939e-24)
)
;
    }
    procBoundary11to10
    {
        type            processor;
        value           nonuniform List<vector> 
25
(
(0.538795 -0.00245214 -4.68354e-23)
(0.541812 -0.00733267 1.72185e-21)
(0.547807 -0.0121421 -1.53856e-21)
(0.556702 -0.0168344 -1.79178e-21)
(0.568382 -0.0213657 1.00013e-21)
(0.582698 -0.0256949 -2.9765e-21)
(0.599469 -0.0297843 3.01057e-21)
(0.618487 -0.0336008 8.47925e-21)
(0.639519 -0.0371155 5.98276e-21)
(0.662313 -0.0403049 7.5702e-21)
(0.686606 -0.043151 -1.10828e-20)
(0.712122 -0.0456412 4.7034e-21)
(0.738582 -0.0477686 9.92035e-21)
(0.769364 -0.0475272 -3.62734e-22)
(0.769364 -0.0475272 -3.62734e-22)
(0.79583 -0.0489107 -8.63634e-21)
(0.822451 -0.0499611 1.08976e-20)
(0.848994 -0.0506907 -2.88224e-21)
(0.875241 -0.0511287 1.21942e-20)
(0.900996 -0.0513113 1.27877e-21)
(0.926082 -0.0511675 7.51811e-21)
(0.94434 -0.0506046 0)
(0.957931 -0.0500816 0)
(0.971945 -0.0494668 0)
(0.986352 -0.048753 0)
)
;
    }
    procBoundary11to14
    {
        type            processor;
        value           uniform (1.00111 -0.0479289 0);
    }
    procBoundary11to15
    {
        type            processor;
        value           nonuniform List<vector> 
27
(
(0.960233 -0.0228706 0)
(0.959964 -0.0220579 0)
(0.959618 -0.0217643 0)
(0.959828 -0.020844 0)
(0.959631 -0.0212947 0)
(0.960469 -0.0198252 0)
(0.960282 -0.0214801 0)
(0.961877 -0.0196069 0)
(1.01189 -0.0455058 0)
(1.00782 -0.0439857 0)
(1.00399 -0.0424439 0)
(1.00037 -0.0408955 0)
(0.996971 -0.0393537 0)
(0.993776 -0.0378302 0)
(0.990782 -0.0363349 0)
(0.987984 -0.0348762 0)
(0.985377 -0.0334617 0)
(0.982957 -0.0320966 0)
(0.98072 -0.0307871 0)
(0.978666 -0.0295353 0)
(0.976786 -0.0283493 0)
(0.97509 -0.0272239 0)
(0.973554 -0.0261787 0)
(0.972214 -0.0251864 0)
(0.971009 -0.024309 0)
(0.960233 -0.0228706 0)
(0.970033 -0.023443 0)
)
;
    }
}


// ************************************************************************* //
