/*--------------------------------*- C++ -*----------------------------------*\
  =========                 |
  \\      /  F ield         | OpenFOAM: The Open Source CFD Toolbox
   \\    /   O peration     | Website:  https://openfoam.org
    \\  /    A nd           | Version:  7
     \\/     M anipulation  |
\*---------------------------------------------------------------------------*/
FoamFile
{
    version     2.0;
    format      ascii;
    class       surfaceScalarField;
    location    "20";
    object      phi;
}
// * * * * * * * * * * * * * * * * * * * * * * * * * * * * * * * * * * * * * //

dimensions      [0 3 -1 0 0 0 0];

internalField   nonuniform List<scalar> 
83430
(
-8.2227e-07
8.22271e-07
-1.58302e-13
-2.21985e-06
1.39758e-06
-3.2655e-13
-3.48023e-06
1.26038e-06
-5.59096e-13
-3.99537e-06
5.1514e-07
-8.10622e-13
-3.273e-06
-7.2237e-07
-1.08487e-12
-8.91029e-07
-2.38197e-06
-1.38176e-12
3.51563e-06
-4.40665e-06
-1.70429e-12
1.02713e-05
-6.75565e-06
-2.0549e-12
1.96681e-05
-9.39683e-06
-2.4326e-12
3.19717e-05
-1.23036e-05
-2.84635e-12
4.74222e-05
-1.54505e-05
-3.26879e-12
6.62318e-05
-1.88097e-05
-3.66686e-12
8.85778e-05
-2.23459e-05
-4.10372e-12
0.00011459
-2.60123e-05
-4.57014e-12
0.000144335
-2.97445e-05
-5.07898e-12
0.000177791
-3.34565e-05
-5.62901e-12
0.000214827
-3.70359e-05
-6.19948e-12
0.000255176
-4.03491e-05
-6.79283e-12
0.00029837
-4.31943e-05
-7.37402e-12
-4.56392e-05
-7.92286e-12
0.000344009
-8.14343e-07
1.63661e-06
-2.19087e-06
2.77411e-06
-3.41787e-06
2.48738e-06
-3.88779e-06
9.85064e-07
-3.10852e-06
-1.50164e-06
-6.57904e-07
-4.83259e-06
3.8294e-06
-8.89396e-06
1.06782e-05
-1.36044e-05
2.01811e-05
-1.88998e-05
3.26046e-05
-2.47271e-05
4.81899e-05
-3.10358e-05
6.71504e-05
-3.77702e-05
8.96648e-05
-4.48603e-05
0.000115865
-5.22124e-05
0.000145819
-5.96984e-05
0.000179509
-6.71464e-05
0.000216805
-7.43315e-05
0.000257441
-8.0986e-05
0.000300952
-8.67052e-05
-9.16232e-05
0.000346936
-7.98704e-07
2.43532e-06
-2.1332e-06
4.10861e-06
-3.29344e-06
3.64762e-06
-3.67286e-06
1.36449e-06
-2.77969e-06
-2.39481e-06
-1.91658e-07
-7.42062e-06
4.45704e-06
-1.35427e-05
1.1492e-05
-2.06394e-05
2.12073e-05
-2.86151e-05
3.38707e-05
-3.73905e-05
4.97254e-05
-4.68905e-05
6.89874e-05
-5.70322e-05
9.18384e-05
-6.77113e-05
0.000118414
-7.8788e-05
0.000148786
-9.00709e-05
0.000182943
-0.000101303
0.000220757
-0.000112146
0.000261968
-0.000122198
0.000306111
-0.000130848
-0.000138296
0.000352783
-7.75387e-07
3.2107e-06
-2.04698e-06
5.3802e-06
-3.10722e-06
4.70785e-06
-3.35106e-06
1.60832e-06
-2.28723e-06
-3.45863e-06
5.06645e-07
-1.02145e-05
5.39716e-06
-1.84332e-05
1.27112e-05
-2.79534e-05
2.27444e-05
-3.86483e-05
3.5767e-05
-5.04131e-05
5.20252e-05
-6.31486e-05
7.17385e-05
-7.67455e-05
9.50931e-05
-9.1066e-05
0.00012223
-0.000105925
0.000153229
-0.000121069
0.000188082
-0.000136156
0.000226671
-0.000150735
0.000268742
-0.000164268
0.000313829
-0.000175936
-0.000185997
0.00036153
-7.44444e-07
3.95515e-06
-1.93242e-06
6.56818e-06
-2.85964e-06
5.63508e-06
-2.92309e-06
1.67177e-06
-1.63224e-06
-4.74949e-06
1.43551e-06
-1.32822e-05
6.6477e-06
-2.36454e-05
1.43328e-05
-3.56385e-05
2.47889e-05
-4.91044e-05
3.82893e-05
-6.39134e-05
5.50837e-05
-7.99431e-05
7.53968e-05
-9.70585e-05
9.94207e-05
-0.00011509
0.000127304
-0.000133808
0.000159133
-0.000152899
0.000194912
-0.000171935
0.00023453
-0.000190353
0.000277741
-0.000207479
0.000324082
-0.000222277
-0.000235063
0.000373148
-7.05948e-07
4.6611e-06
-1.78976e-06
7.65199e-06
-2.55125e-06
6.39657e-06
-2.38992e-06
1.51044e-06
-8.16131e-07
-6.32328e-06
2.59291e-06
-1.66913e-05
8.20594e-06
-2.92584e-05
1.63535e-05
-4.37861e-05
2.73364e-05
-6.00873e-05
4.14317e-05
-7.80087e-05
5.8894e-05
-9.74054e-05
7.99536e-05
-0.000118118
0.00010481
-0.000139946
0.000133621
-0.000162619
0.000166484
-0.000185761
0.000203413
-0.000208864
0.00024431
-0.00023125
0.000288937
-0.000252107
0.000336836
-0.000270176
-0.000285824
0.000387598
-6.59985e-07
5.32108e-06
-1.61934e-06
8.61134e-06
-2.18274e-06
6.95998e-06
-1.75271e-06
1.08041e-06
1.59314e-07
-8.2353e-06
3.97634e-06
-2.05083e-05
1.00685e-05
-3.53506e-05
1.87687e-05
-5.24863e-05
3.03812e-05
-7.16998e-05
4.51872e-05
-9.28147e-05
6.3447e-05
-0.000115665
8.53979e-05
-0.000140069
0.000111248
-0.000165797
0.000141165
-0.000192536
0.00017526
-0.000219855
0.00021356
-0.000247164
0.00025598
-0.000273671
0.000302295
-0.000298421
0.000352049
-0.00031993
-0.000338605
0.00040483
-6.06662e-07
5.92774e-06
-1.42153e-06
9.4262e-06
-1.75492e-06
7.29336e-06
-1.01284e-06
3.3834e-07
1.29197e-06
-1.05401e-05
5.5828e-06
-2.47991e-05
1.22313e-05
-4.19991e-05
2.15732e-05
-6.18281e-05
3.39164e-05
-8.4043e-05
4.95473e-05
-0.000108446
6.87323e-05
-0.00013485
9.17166e-05
-0.000163053
0.000118718
-0.000192798
0.000149917
-0.000223735
0.000185437
-0.000255376
0.000225323
-0.000287049
0.000269505
-0.000317853
0.000317772
-0.000346688
0.000369672
-0.000371831
-0.000393719
0.000424787
-5.46102e-07
6.47385e-06
-1.19678e-06
1.00769e-05
-1.26872e-06
7.36531e-06
-1.71902e-07
-7.58482e-07
2.57941e-06
-1.32914e-05
7.40884e-06
-2.96286e-05
1.46898e-05
-4.928e-05
2.47609e-05
-7.18992e-05
3.79344e-05
-9.72165e-05
5.45021e-05
-0.000125013
7.47375e-05
-0.000155086
9.88945e-05
-0.00018721
0.000127202
-0.000221106
0.000159853
-0.000256386
0.000196988
-0.000292511
0.000238669
-0.00032873
0.000284845
-0.000364029
0.000335318
-0.000397161
0.000389646
-0.000426158
-0.000451473
0.0004474
-4.78444e-07
6.95229e-06
-9.45582e-07
1.0544e-05
-7.25223e-07
7.14495e-06
7.68209e-07
-2.25191e-06
4.01887e-06
-1.65421e-05
9.45054e-06
-3.50602e-05
1.74386e-05
-5.72681e-05
2.83248e-05
-8.27855e-05
4.24263e-05
-0.000111318
6.00406e-05
-0.000142628
8.14489e-05
-0.000176494
0.000106914
-0.000212676
0.000136678
-0.00025087
0.000170947
-0.000290656
0.00020988
-0.000331443
0.000253558
-0.000372408
0.000301951
-0.000412422
0.000354879
-0.00045009
0.000411905
-0.000483184
-0.000512161
0.000472593
-4.0384e-07
7.35613e-06
-6.68494e-07
1.08087e-05
-1.25589e-07
6.60205e-06
1.80557e-06
-4.18307e-06
5.60729e-06
-2.03438e-05
1.17036e-05
-4.11565e-05
2.04718e-05
-6.60363e-05
3.22574e-05
-9.45711e-05
4.73822e-05
-0.000126443
6.61503e-05
-0.000161396
8.88509e-05
-0.000199194
0.000115757
-0.000239582
0.000147123
-0.000282235
0.000183171
-0.000326704
0.000224078
-0.00037235
0.000269948
-0.000418278
0.000320772
-0.000463246
0.000376391
-0.000505709
0.000436376
-0.000543169
-0.000576065
0.000500279
-3.22458e-07
7.67859e-06
-3.66114e-07
1.08523e-05
5.28897e-07
5.70704e-06
2.93794e-06
-6.59211e-06
7.34128e-06
-2.47472e-05
1.41631e-05
-4.79784e-05
2.3783e-05
-7.56561e-05
3.655e-05
-0.000107338
5.27913e-05
-0.000142684
7.28176e-05
-0.000181422
9.69265e-05
-0.000223303
0.000125402
-0.000268058
0.000158511
-0.000315344
0.000196492
-0.000364685
0.000239543
-0.000415401
0.00028779
-0.000466526
0.000341251
-0.000516707
0.000399786
-0.000564244
0.000462977
-0.00060636
-0.000643452
0.000530364
-2.34481e-07
7.91307e-06
-3.88956e-08
1.06567e-05
1.23684e-06
4.4313e-06
4.16293e-06
-9.51819e-06
9.21721e-06
-2.98014e-05
1.6824e-05
-5.55852e-05
2.73651e-05
-8.61972e-05
4.11936e-05
-0.000121167
5.86418e-05
-0.000160132
8.00276e-05
-0.000202808
0.000105657
-0.000248933
0.000135826
-0.000298226
0.000170813
-0.000350331
0.000210876
-0.000404748
0.000256232
-0.000460758
0.000307034
-0.000517327
0.000363324
-0.000572997
0.000424988
-0.000625909
0.000491619
-0.00067299
-0.000714576
0.000562743
-1.40132e-07
8.0532e-06
3.11812e-07
1.02048e-05
1.99673e-06
2.74638e-06
5.47797e-06
-1.29994e-05
1.12311e-05
-3.55546e-05
1.96807e-05
-6.40348e-05
3.12107e-05
-9.77272e-05
4.61781e-05
-0.000136134
6.4921e-05
-0.000178875
8.77643e-05
-0.000225651
0.000115023
-0.000276192
0.000147004
-0.000330207
0.000183999
-0.000387327
0.000226285
-0.000447034
0.0002741
-0.000508573
0.000327622
-0.00057085
0.000386923
-0.000632298
0.000451917
-0.000690902
0.000522206
-0.00074328
-0.000789673
0.000597304
-3.95272e-08
8.09273e-06
6.85974e-07
9.4793e-06
2.80701e-06
6.25343e-07
6.88032e-06
-1.70727e-05
1.33789e-05
-4.20532e-05
2.27272e-05
-7.3383e-05
3.53114e-05
-0.000110311
5.14929e-05
-0.000152315
7.16152e-05
-0.000198998
9.60106e-05
-0.000250047
0.000125003
-0.000305184
0.000158909
-0.000364113
0.000198038
-0.000426455
0.00024268
-0.000491676
0.000293097
-0.00055899
0.000349496
-0.000627248
0.000411978
-0.000694779
0.000480484
-0.000759409
0.000554635
-0.000817431
-0.000868964
0.000633926
6.72292e-08
8.0255e-06
1.08257e-06
8.46396e-06
3.66599e-06
-1.95809e-06
8.36711e-06
-2.17739e-05
1.5656e-05
-4.9342e-05
2.5957e-05
-8.36841e-05
3.96588e-05
-0.000124013
5.71267e-05
-0.000169783
7.871e-05
-0.000220581
0.000104748
-0.000276085
0.000135574
-0.00033601
0.000171515
-0.000400054
0.000212893
-0.000467833
0.000260018
-0.0005388
0.000313173
-0.000612146
0.000372592
-0.000686667
0.000438409
-0.000760596
0.000510598
-0.000831597
0.000588796
-0.000895629
-0.000952649
0.000672481
1.79489e-07
7.84601e-06
1.50075e-06
7.1427e-06
4.57193e-06
-5.02926e-06
9.93528e-06
-2.71372e-05
1.80578e-05
-5.74646e-05
2.93637e-05
-9.499e-05
4.42438e-05
-0.000138893
6.30675e-05
-0.000188607
8.61899e-05
-0.000243703
0.000113958
-0.000303852
0.000146712
-0.000368764
0.000184791
-0.000438133
0.00022853
-0.000511572
0.000278255
-0.000588526
0.000334272
-0.000668163
0.000396844
-0.000749239
0.000466137
-0.00082989
0.00054216
-0.00090762
0.000624571
-0.000978041
-0.00104091
0.000712831
2.97356e-07
7.54865e-06
1.9397e-06
5.50035e-06
5.52298e-06
-8.61254e-06
1.15817e-05
-3.31959e-05
2.05794e-05
-6.64623e-05
3.29401e-05
-0.000107351
4.90567e-05
-0.00015501
6.93027e-05
-0.000208853
9.40389e-05
-0.000268439
0.000123619
-0.000333432
0.000158391
-0.000403537
0.000198706
-0.000478448
0.000244909
-0.000557775
0.000297344
-0.00064096
0.000356338
-0.000727157
0.000422181
-0.000815082
0.000495076
-0.000902784
0.000575067
-0.000987611
0.00066184
-0.00106481
-0.0011339
0.000754835
4.20535e-07
7.12812e-06
2.39854e-06
3.52235e-06
6.51725e-06
-1.27313e-05
1.33029e-05
-3.99816e-05
2.32157e-05
-7.6375e-05
3.66789e-05
-0.000120814
5.40876e-05
-0.000172419
7.58192e-05
-0.000230585
0.00010224
-0.00029486
0.00013371
-0.000364902
0.000170586
-0.000440414
0.000213227
-0.000521089
0.000261991
-0.000606539
0.000317236
-0.000696205
0.00037931
-0.000789231
0.00044853
-0.000884303
0.000525136
-0.000979391
0.000609212
-0.00107169
0.000700472
-0.00115607
-0.00123177
0.000798341
5.48776e-07
6.57934e-06
2.87636e-06
1.19477e-06
7.55278e-06
-1.74077e-05
1.50957e-05
-4.75245e-05
2.59613e-05
-8.72406e-05
4.05724e-05
-0.000135425
5.93259e-05
-0.000191172
8.2603e-05
-0.000253862
0.000110775
-0.000323032
0.000144209
-0.000398335
0.000183268
-0.000479473
0.00022832
-0.000566141
0.000279734
-0.000657953
0.00033788
-0.000754351
0.000403126
-0.000854477
0.000475817
-0.000956993
0.000556226
-0.0010598
0.000644482
-0.00115994
0.000740335
-0.00125193
-0.00133463
0.000843194
6.81829e-07
5.89751e-06
3.37224e-06
-1.49565e-06
8.62755e-06
-2.2663e-05
1.69564e-05
-5.58533e-05
2.88108e-05
-9.90951e-05
4.46127e-05
-0.000151227
6.47608e-05
-0.00021132
8.96398e-05
-0.000278741
0.000119626
-0.000353018
0.000155092
-0.000433801
0.000196408
-0.00052079
0.00024395
-0.000613682
0.000298094
-0.000712096
0.000359223
-0.000815481
0.000427722
-0.000922976
0.000503961
-0.00103323
0.000588251
-0.00114409
0.000680762
-0.00125245
0.000781289
-0.00135245
-0.00144257
0.000889229
8.19443e-07
5.07807e-06
3.88525e-06
-4.56145e-06
9.73947e-06
-2.85172e-05
1.88813e-05
-6.49952e-05
3.17585e-05
-0.000111972
4.87916e-05
-0.00016826
7.03809e-05
-0.00023291
9.69146e-05
-0.000305274
0.000128773
-0.000384877
0.000166335
-0.000471362
0.000209977
-0.000564432
0.000260078
-0.000663784
0.000317026
-0.000769044
0.000381211
-0.000879666
0.000453033
-0.000994798
0.000532883
-0.00111308
0.000621111
-0.00123232
0.000717932
-0.00134927
0.000823193
-0.00145772
-0.00155566
0.000936282
9.61364e-07
4.11671e-06
4.41441e-06
-8.01449e-06
1.08864e-05
-3.49893e-05
2.08668e-05
-7.49755e-05
3.47984e-05
-0.000125904
5.31006e-05
-0.000186562
7.61746e-05
-0.000255984
0.000104412
-0.000333512
0.000138197
-0.000418662
0.000177913
-0.000511078
0.000223941
-0.00061046
0.000276668
-0.00071651
0.000336483
-0.000828859
0.000403787
-0.000946969
0.000478989
-0.00107
0.000562501
-0.0011966
0.000654706
-0.00132452
0.000755869
-0.00145044
0.000865898
-0.00156774
-0.00167394
0.000984178
1.10734e-06
3.00937e-06
4.95875e-06
-1.18659e-05
1.20663e-05
-4.20968e-05
2.2909e-05
-8.58183e-05
3.79247e-05
-0.000140919
5.75308e-05
-0.000206168
8.21298e-05
-0.000280583
0.000112115
-0.000363497
0.000147876
-0.000454423
0.000189799
-0.000553001
0.00023827
-0.000658931
0.000293678
-0.000771919
0.000356418
-0.000891599
0.000426893
-0.00101744
0.00050552
-0.00114863
0.00059273
-0.0012838
0.000688934
-0.00142073
0.00079445
-0.00155595
0.000909256
-0.00168255
-0.00179743
0.00103274
1.25711e-06
1.75226e-06
5.51729e-06
-1.61261e-05
1.32768e-05
-4.98563e-05
2.5004e-05
-9.75454e-05
4.1131e-05
-0.000157047
6.20735e-05
-0.000227111
8.8234e-05
-0.000306743
0.000120009
-0.000395272
0.000157789
-0.000492204
0.000201966
-0.000597177
0.000252928
-0.000709893
0.000311067
-0.000830058
0.000376779
-0.00095731
0.000450468
-0.00109113
0.000532556
-0.00123072
0.000623483
-0.00137473
0.000723691
-0.00152093
0.000833547
-0.00166581
0.000953114
-0.00180212
-0.00192611
0.0010818
1.41042e-06
3.41837e-07
6.08902e-06
-2.08047e-05
1.45158e-05
-5.8283e-05
2.71477e-05
-0.000110177
4.44112e-05
-0.00017431
6.67191e-05
-0.000249419
9.44743e-05
-0.000334498
0.000128074
-0.000428872
0.000167914
-0.000532043
0.000214385
-0.000643649
0.000267881
-0.000763389
0.000328792
-0.000890969
0.000397514
-0.00102603
0.000474451
-0.00116807
0.000560023
-0.00131629
0.000654675
-0.00146938
0.000758873
-0.00162513
0.000873034
-0.00177997
0.00099732
-0.0019264
-0.00205995
0.00113116
1.56703e-06
-1.22519e-06
6.67296e-06
-2.59106e-05
1.57809e-05
-6.7391e-05
2.93362e-05
-0.000123733
4.77587e-05
-0.000192733
7.14584e-05
-0.000273118
0.000100838
-0.000363877
0.000136295
-0.000464329
0.000178227
-0.000573975
0.000227028
-0.00069245
0.000283091
-0.000819452
0.000346808
-0.000954686
0.000418571
-0.0010978
0.000498779
-0.00124828
0.000587846
-0.00140535
0.000686216
-0.00156775
0.000794374
-0.00173329
0.000912783
-0.00189838
0.00104172
-0.00205534
-0.00219888
0.00118065
1.72667e-06
-2.95186e-06
7.26809e-06
-3.1452e-05
1.70699e-05
-7.71928e-05
3.15652e-05
-0.000138228
5.1167e-05
-0.000212334
7.62817e-05
-0.000298233
0.00010731
-0.000394906
0.000144652
-0.000501671
0.000188705
-0.000618028
0.000239864
-0.000743609
0.000298522
-0.00087811
0.000365069
-0.00102123
0.000439894
-0.00117262
0.000523385
-0.00133177
0.000615948
-0.00149792
0.000718018
-0.00166982
0.00083009
-0.00184536
0.000952666
-0.00202096
0.00108616
-0.00218883
-0.0023428
0.00123008
1.88911e-06
-4.84097e-06
7.8734e-06
-3.74363e-05
1.83805e-05
-8.76999e-05
3.38306e-05
-0.000153678
5.46294e-05
-0.000233133
8.11789e-05
-0.000324783
0.000113879
-0.000427606
0.000153127
-0.00054092
0.000199323
-0.000664223
0.000252861
-0.000797147
0.000314134
-0.000939383
0.000383527
-0.00109063
0.000461423
-0.00125052
0.000548202
-0.00141855
0.000644251
-0.00159397
0.000749992
-0.00177557
0.000865917
-0.00196129
0.000992561
-0.0021476
0.00113049
-0.00232677
-0.00249159
0.00127928
2.0541e-06
-6.89507e-06
8.48787e-06
-4.38701e-05
1.97103e-05
-9.89223e-05
3.61282e-05
-0.000170096
5.81391e-05
-0.000255144
8.61401e-05
-0.000352784
0.000120528
-0.000461994
0.000161701
-0.000582093
0.000210056
-0.000712578
0.000265987
-0.000853078
0.000329885
-0.00100328
0.000402132
-0.00116287
0.000483101
-0.00133148
0.000573158
-0.00150861
0.000672674
-0.00169348
0.000782045
-0.00188494
0.000901752
-0.00208099
0.00103235
-0.0022782
0.00117457
-0.00246899
-0.00264508
0.00132806
2.22141e-06
-9.11648e-06
9.11051e-06
-5.07592e-05
2.1057e-05
-0.000110869
3.84536e-05
-0.000187493
6.16891e-05
-0.000278379
9.11549e-05
-0.000382249
0.000127245
-0.000498084
0.000170354
-0.000625202
0.000220878
-0.000763102
0.00027921
-0.00091141
0.000345735
-0.00106981
0.000420832
-0.00123797
0.000504864
-0.00141552
0.000598182
-0.00160192
0.000701134
-0.00179643
0.000814087
-0.00199789
0.000937494
-0.0022044
0.00107191
-0.00241261
0.00121826
-0.00261535
-0.00280306
0.00137625
2.3908e-06
-1.15073e-05
9.74028e-06
-5.81087e-05
2.24182e-05
-0.000123547
4.08025e-05
-0.000205877
6.52724e-05
-0.000302849
9.62129e-05
-0.00041319
0.000134013
-0.000535884
0.000179065
-0.000670254
0.000231762
-0.000815799
0.000292493
-0.000972141
0.00036164
-0.00113895
0.000439573
-0.0013159
0.000526646
-0.00150259
0.000623197
-0.00169847
0.000729546
-0.00190278
0.000846024
-0.00211437
0.000973044
-0.00233142
0.00111113
-0.0025507
0.00126143
-0.00276564
-0.0029653
0.00142367
2.56206e-06
-1.40693e-05
1.03762e-05
-6.59228e-05
2.37915e-05
-0.000136962
4.31705e-05
-0.000225256
6.88819e-05
-0.000328561
0.000101303
-0.000445611
0.000140819
-0.000575399
0.000187815
-0.000717251
0.000242682
-0.000870665
0.000305802
-0.00103526
0.000377554
-0.0012107
0.000458299
-0.00139665
0.000548382
-0.00159267
0.000648122
-0.00179821
0.000757818
-0.00201248
0.000877759
-0.00223431
0.00100831
-0.00246197
0.00114993
-0.00269232
0.00130397
-0.00291968
-0.00313151
0.00147017
2.73497e-06
-1.68043e-05
1.10172e-05
-7.4205e-05
2.51745e-05
-0.000151119
4.55531e-05
-0.000245635
7.25105e-05
-0.000355518
0.000106416
-0.000479517
0.000147646
-0.000616629
0.000196583
-0.000766187
0.000253608
-0.000927691
0.000319102
-0.00110075
0.000393432
-0.00128503
0.000476953
-0.00148017
0.000569999
-0.00168572
0.000672875
-0.00190109
0.000785856
-0.00212546
0.000909193
-0.00235765
0.00104318
-0.00259596
0.00118821
-0.00283735
0.00134579
-0.00307726
-0.0033013
0.00151558
2.90932e-06
-1.97136e-05
1.16623e-05
-8.29581e-05
2.65647e-05
-0.000166022
4.79458e-05
-0.000267016
7.61507e-05
-0.000383723
0.000111539
-0.000514905
0.000154479
-0.00065957
0.000205346
-0.000817054
0.000264514
-0.000986859
0.000332354
-0.00116859
0.000409226
-0.00136191
0.000495475
-0.00156642
0.000591424
-0.00178167
0.000697366
-0.00200703
0.000813558
-0.00224165
0.000940218
-0.00248431
0.00107758
-0.00273331
0.00122591
-0.00298568
0.00138682
-0.00323817
-0.00347427
0.00155978
3.0849e-06
-2.27985e-05
1.23105e-05
-9.21837e-05
2.79598e-05
-0.000181671
5.03441e-05
-0.0002894
7.97953e-05
-0.000413174
0.000116662
-0.000551771
0.000161303
-0.00070421
0.000214083
-0.000869835
0.000275369
-0.00104814
0.00034552
-0.00123875
0.000424887
-0.00144127
0.000513803
-0.00165534
0.000612581
-0.00188044
0.000721502
-0.00211595
0.000840815
-0.00236097
0.000970718
-0.00261421
0.00111138
-0.00287398
0.00126296
-0.00313726
0.00142707
-0.00340228
-0.00364988
0.00160268
3.26149e-06
-2.606e-05
1.29607e-05
-0.000101883
2.93572e-05
-0.000198067
5.27435e-05
-0.000312786
8.34369e-05
-0.000443868
0.000121773
-0.000590108
0.000168101
-0.000750538
0.000222773
-0.000924507
0.000286145
-0.00111152
0.000358564
-0.00131116
0.000440367
-0.00152308
0.000531875
-0.00174684
0.000633389
-0.00198196
0.000745186
-0.00222775
0.000867509
-0.00248329
0.00100056
-0.00274726
0.00114449
-0.00301791
0.00129934
-0.00329211
0.00146657
-0.00356951
-0.00382757
0.00164426
3.43888e-06
-2.94989e-05
1.36119e-05
-0.000112056
3.07544e-05
-0.00021521
5.51393e-05
-0.000337171
8.7068e-05
-0.000475796
0.000126862
-0.000629902
0.000174858
-0.000798533
0.000231394
-0.000981044
0.000296813
-0.00117693
0.000371446
-0.0013858
0.000455615
-0.00160725
0.000549627
-0.00184085
0.000653769
-0.0020861
0.000768312
-0.00234229
0.000893511
-0.00260849
0.0010296
-0.00288335
0.00117675
-0.00316506
0.00133501
-0.00345038
0.0015054
-0.00373989
-0.00400684
0.00168467
3.6168e-06
-3.31157e-05
1.42629e-05
-0.000122702
3.21489e-05
-0.000233096
5.75269e-05
-0.000362549
9.0681e-05
-0.000508951
0.000131918
-0.000671139
0.000181557
-0.000848172
0.000239924
-0.00103941
0.000307342
-0.00124435
0.000384127
-0.00146258
0.000470582
-0.0016937
0.000566993
-0.00193727
0.000673636
-0.00219274
0.000790774
-0.00245943
0.00091868
-0.00273639
0.00105765
-0.00302231
0.00120799
-0.0033154
0.00136999
-0.00361239
0.00154386
-0.00391376
-0.00418787
0.00172489
3.79487e-06
-3.69106e-05
1.49125e-05
-0.00013382
3.3538e-05
-0.000251721
5.99015e-05
-0.000388913
9.42684e-05
-0.000543317
0.000136928
-0.000713798
0.000188182
-0.000899427
0.000248339
-0.00109957
0.000317703
-0.00131372
0.000396569
-0.00154145
0.000485216
-0.00178235
0.000583911
-0.00203596
0.000692907
-0.00230174
0.000812462
-0.00257899
0.000942865
-0.0028668
0.00108449
-0.00316394
0.00123792
-0.00346882
0.00140411
-0.00377859
0.00158362
-0.00409326
-0.00437094
0.00176668
3.92351e-06
-4.08341e-05
1.54532e-05
-0.000145349
3.47511e-05
-0.000271019
6.20259e-05
-0.000416187
9.75244e-05
-0.000578816
0.000141518
-0.000757791
0.00019429
-0.000952199
0.00025613
-0.00116141
0.000327319
-0.00138491
0.000408128
-0.00162226
0.000498811
-0.00187303
0.000599608
-0.00213676
0.000710748
-0.00241288
0.000832473
-0.00270071
0.000965083
-0.00299941
0.00110903
-0.00330789
0.00126514
-0.00362493
0.00143523
-0.00394868
0.0016249
-0.00428293
-0.00461037
0.00186434
4.09676e-06
-4.49308e-05
1.60885e-05
-0.000157341
3.611e-05
-0.000291041
6.43453e-05
-0.000444423
0.000101019
-0.00061549
0.000146382
-0.000803154
0.000200695
-0.00100651
0.000264225
-0.00122494
0.000337227
-0.00145791
0.000419945
-0.00170498
0.000512601
-0.00196569
0.000615402
-0.00223956
0.000728545
-0.00252602
0.000852245
-0.00282441
0.000986789
-0.00313395
0.00113266
-0.00345375
0.00129079
-0.00378307
0.00146329
-0.00412118
0.00165502
-0.00447466
-0.00483555
0.0018802
4.26913e-06
-4.92e-05
1.6719e-05
-0.000169791
3.74557e-05
-0.000311778
6.66373e-05
-0.000473604
0.000104465
-0.000653318
0.000151165
-0.000849854
0.000206977
-0.00106232
0.000272139
-0.0012901
0.000346879
-0.00153265
0.000431407
-0.0017895
0.000525912
-0.00206019
0.000630559
-0.00234421
0.000745506
-0.00264097
0.000870927
-0.00294983
0.00100707
-0.00327009
0.00115436
-0.00360105
0.00131368
-0.00394238
0.00148681
-0.0042943
0.0016763
-0.00466415
-0.00504911
0.00188985
4.44018e-06
-5.36402e-05
1.73433e-05
-0.000182694
3.87856e-05
-0.00033322
6.88973e-05
-0.000503716
0.000107854
-0.000692275
0.000155858
-0.000897857
0.00021312
-0.00111959
0.000279851
-0.00135683
0.000356246
-0.00160904
0.00044248
-0.00187574
0.000538699
-0.00215641
0.000645025
-0.00245053
0.000761565
-0.00275751
0.000888436
-0.0030767
0.00102582
-0.00340747
0.00117404
-0.00374927
0.00133376
-0.0041021
0.00150619
-0.00446674
0.00169211
-0.00485008
-0.00525206
0.00189507
4.60954e-06
-5.82497e-05
1.79604e-05
-0.000196045
4.0097e-05
-0.000355357
7.11206e-05
-0.00053474
0.00011118
-0.000732334
0.000160448
-0.000947126
0.000219109
-0.00117825
0.000287341
-0.00142506
0.000365302
-0.00168701
0.000453128
-0.00196356
0.00055092
-0.0022542
0.000658748
-0.00255836
0.000776661
-0.00287542
0.000904704
-0.00320475
0.00104296
-0.00354573
0.00119163
-0.00389794
0.00135108
-0.00426155
0.00152193
-0.00463759
0.00170375
-0.00503189
-0.00544579
0.00189748
4.77693e-06
-6.30266e-05
1.85689e-05
-0.000209837
4.13874e-05
-0.000378175
7.33024e-05
-0.000566655
0.000114434
-0.000773466
0.000164925
-0.000997618
0.000224929
-0.00123825
0.000294587
-0.00149472
0.00037402
-0.00176644
0.000463319
-0.00205286
0.000562535
-0.00235342
0.000671681
-0.00266751
0.000790739
-0.00299448
0.000919674
-0.00333368
0.00105846
-0.00368452
0.00120713
-0.00404661
0.00136575
-0.00442017
0.00153441
-0.00480626
0.00171189
-0.00520937
-0.00563151
0.00189761
4.94208e-06
-6.79687e-05
1.91679e-05
-0.000224063
4.26541e-05
-0.000401661
7.54382e-05
-0.000599439
0.000117609
-0.000815636
0.000169278
-0.00104929
0.000230563
-0.00129954
0.000301569
-0.00156572
0.000382374
-0.00184724
0.000473021
-0.00214351
0.000573506
-0.0024539
0.000683781
-0.00277778
0.000803754
-0.00311445
0.0009333
-0.00346323
0.00107228
-0.0038235
0.00122054
-0.00419487
0.00137788
-0.0045775
0.00154393
-0.00497231
0.00171699
-0.00538243
-0.00581017
0.00189564
5.10472e-06
-7.30734e-05
1.97561e-05
-0.000238714
4.38945e-05
-0.0004258
7.75232e-05
-0.000633067
0.000120698
-0.000858811
0.000173496
-0.00110208
0.000235998
-0.00136204
0.000308268
-0.00163799
0.00039034
-0.00192932
0.000482203
-0.00223537
0.000583798
-0.0025555
0.000695007
-0.00288899
0.000815663
-0.00323511
0.000945546
-0.00359311
0.00108439
-0.00396234
0.00123188
-0.00434236
0.00138755
-0.00473318
0.0015507
-0.00513545
0.00171936
-0.00555109
-0.00598246
0.00189166
5.2646e-06
-7.8338e-05
2.03325e-05
-0.000253782
4.51062e-05
-0.000450573
7.95528e-05
-0.000667514
0.000123693
-0.000902951
0.000177568
-0.00115596
0.000241218
-0.00142569
0.000314665
-0.00171144
0.000397893
-0.00201254
0.000490838
-0.00232832
0.000593377
-0.00265804
0.000705325
-0.00300094
0.000826432
-0.00335622
0.000956383
-0.00372306
0.00109479
-0.00410075
0.00124118
-0.00448874
0.00139487
-0.00488687
0.0015549
-0.00529548
0.00171919
-0.00571539
-0.00614892
0.00188565
5.42144e-06
-8.37595e-05
2.08959e-05
-0.000269256
4.62866e-05
-0.000475964
8.15225e-05
-0.00070275
0.000126587
-0.000948016
0.000181484
-0.00121086
0.00024621
-0.00149041
0.000320741
-0.00178597
0.000405011
-0.00209681
0.000498897
-0.0024222
0.000602213
-0.00276135
0.000714702
-0.00311343
0.00083603
-0.00347754
0.000965786
-0.00385282
0.00110347
-0.00423843
0.00124845
-0.00463373
0.0013999
-0.00503832
0.00155664
-0.00545222
0.0017166
-0.00587534
-0.00630991
0.00187759
5.57498e-06
-8.93344e-05
2.14452e-05
-0.000285127
4.7433e-05
-0.000501952
8.34276e-05
-0.000738744
0.000129374
-0.000993962
0.000185233
-0.00126671
0.000250959
-0.00155614
0.000326479
-0.00186149
0.000411672
-0.00218201
0.000506356
-0.00251689
0.000610278
-0.00286528
0.000723108
-0.00322626
0.00084443
-0.00359887
0.000973738
-0.00398213
0.00111042
-0.00437512
0.00125373
-0.00477704
0.0014027
-0.00518729
0.00155602
-0.00560554
0.00171165
-0.00603097
-0.00646569
0.00186743
5.72494e-06
-9.50594e-05
2.19794e-05
-0.000301381
4.8543e-05
-0.000528516
8.52637e-05
-0.000775465
0.000132045
-0.00104074
0.000188805
-0.00132347
0.000255452
-0.00162279
0.000331861
-0.0019379
0.000417855
-0.002268
0.00051319
-0.00261222
0.000617546
-0.00296963
0.000730518
-0.00333923
0.000851608
-0.00371996
0.000980223
-0.00411074
0.00111565
-0.00451055
0.00125704
-0.00491843
0.00140331
-0.00533355
0.00155308
-0.00575531
0.00170439
-0.00618228
-0.00661644
0.00185514
5.87106e-06
-0.00010093
2.24972e-05
-0.000318007
4.9614e-05
-0.000555632
8.70261e-05
-0.000812877
0.000134594
-0.00108831
0.000192191
-0.00138107
0.000259676
-0.00169027
0.000336871
-0.0020151
0.00042354
-0.00235467
0.000519377
-0.00270806
0.000623992
-0.00307425
0.000736907
-0.00345214
0.000857546
-0.0038406
0.000985229
-0.00423842
0.00111916
-0.00464448
0.00125839
-0.00505766
0.00140177
-0.00547693
0.00154788
-0.00590142
0.00169484
-0.00632924
-0.00676227
0.00184067
6.01304e-06
-0.000106943
2.29975e-05
-0.000334992
5.06434e-05
-0.000583278
8.87104e-05
-0.000850944
0.000137014
-0.00113662
0.00019538
-0.00143944
0.000263617
-0.00175851
0.000341491
-0.00209297
0.000428708
-0.00244189
0.000524895
-0.00280425
0.000629595
-0.00317895
0.000742256
-0.00356481
0.000862226
-0.00396057
0.000988746
-0.00436495
0.00112094
-0.00477667
0.0012578
-0.00519451
0.00139811
-0.00561724
0.00154044
-0.00604376
0.00168304
-0.00647184
-0.00690323
0.001824
6.15058e-06
-0.000113094
2.34792e-05
-0.00035232
5.16287e-05
-0.000611428
9.0312e-05
-0.000889627
0.000139298
-0.0011856
0.000198364
-0.0014985
0.000267264
-0.00182741
0.000345708
-0.00217141
0.000433341
-0.00252952
0.000529725
-0.00290063
0.000634334
-0.00328356
0.000746545
-0.00367702
0.000865633
-0.00407965
0.00099077
-0.00449008
0.00112101
-0.00490691
0.00125528
-0.00532878
0.00139236
-0.00575431
0.00153081
-0.00618221
0.00166898
-0.00661001
-0.00703935
0.00180511
6.28341e-06
-0.000119377
2.39411e-05
-0.000369978
5.25673e-05
-0.000640054
9.18267e-05
-0.000928887
0.00014144
-0.00123522
0.000201132
-0.00155819
0.000270603
-0.00189688
0.000349506
-0.00225032
0.000437422
-0.00261743
0.000533849
-0.00299706
0.000638192
-0.0033879
0.000749759
-0.00378858
0.000867758
-0.00419765
0.000991295
-0.00461362
0.00111937
-0.00503499
0.00125087
-0.00546028
0.00138454
-0.00588799
0.001519
-0.00631667
0.0016527
-0.00674371
-0.00717064
0.00178399
6.4112e-06
-0.000125789
2.4382e-05
-0.000387949
5.34567e-05
-0.000669129
9.32499e-05
-0.00096868
0.000143432
-0.0012854
0.000203675
-0.00161844
0.000273625
-0.00196683
0.000352872
-0.00232956
0.000440936
-0.0027055
0.00053725
-0.00309337
0.000641152
-0.0034918
0.000751884
-0.00389932
0.00086859
-0.00431436
0.00099032
-0.00473535
0.00111603
-0.00516069
0.00124457
-0.00558882
0.00137469
-0.00601811
0.00150505
-0.00644704
0.00163421
-0.00687287
-0.00729708
0.00176065
6.53366e-06
-0.000132322
2.48008e-05
-0.000406216
5.42944e-05
-0.000698622
9.45775e-05
-0.00100896
0.000145269
-0.00133609
0.000205985
-0.00167915
0.000276316
-0.00203716
0.000355792
-0.00240904
0.000443868
-0.00279357
0.000539912
-0.00318942
0.0006432
-0.00359509
0.000752908
-0.00400902
0.000868124
-0.00442957
0.000987846
-0.00485507
0.00111099
-0.00528384
0.0012364
-0.00571423
0.00136283
-0.00614455
0.00148899
-0.00657319
0.00161355
-0.00699743
-0.00741864
0.00173511
6.65047e-06
-0.000138973
2.51964e-05
-0.000424762
5.50779e-05
-0.000728504
9.5805e-05
-0.00104969
0.000146943
-0.00138723
0.000208054
-0.00174027
0.000278667
-0.00210778
0.000358253
-0.00248863
0.000446204
-0.00288152
0.000541824
-0.00328504
0.000644323
-0.00369759
0.000752823
-0.00411752
0.000866356
-0.00454311
0.000983878
-0.00497259
0.00110428
-0.00540424
0.00122638
-0.00583634
0.00134899
-0.00626715
0.00147084
-0.00669505
0.00159073
-0.00711732
-0.00753529
0.00170738
6.76132e-06
-0.000145734
2.55676e-05
-0.000443568
5.58047e-05
-0.000758741
9.69284e-05
-0.00109081
0.000148449
-0.00143875
0.000209873
-0.00180169
0.000280669
-0.00217857
0.000360245
-0.0025682
0.000447932
-0.00296921
0.000542971
-0.00338007
0.000644513
-0.00379913
0.000751622
-0.00422463
0.000863285
-0.00465477
0.000978421
-0.00508773
0.0010959
-0.00552172
0.00121455
-0.00595499
0.0013332
-0.00638579
0.00145065
-0.00681251
0.00156581
-0.00723248
-0.00764699
0.00167751