/*--------------------------------*- C++ -*----------------------------------*\
  =========                 |
  \\      /  F ield         | OpenFOAM: The Open Source CFD Toolbox
   \\    /   O peration     | Website:  https://openfoam.org
    \\  /    A nd           | Version:  7
     \\/     M anipulation  |
\*---------------------------------------------------------------------------*/
FoamFile
{
    version     2.0;
    format      ascii;
    class       volVectorField;
    location    "20";
    object      U;
}
// * * * * * * * * * * * * * * * * * * * * * * * * * * * * * * * * * * * * * //

dimensions      [0 1 -1 0 0 0 0];

internalField   nonuniform List<vector> 
42000
(
(-0.000304716 0.000116184 1.81437e-21)
(-0.00135465 0.000182233 -1.49414e-21)
(-0.00261667 0.000144728 1.14666e-22)
(-0.00324523 3.61673e-05 8.7129e-22)
(-0.00303916 -0.000118619 -2.24526e-21)
(-0.00177816 -0.000302764 -1.75961e-21)
(0.000608736 -0.000504077 3.63207e-21)
(0.00415012 -0.000713911 1.97123e-22)
(0.00882851 -0.000925951 2.18759e-21)
(0.0146017 -0.00113543 7.68936e-23)
(0.0214084 -0.0013385 3.86154e-22)
(0.0291738 -0.00153171 -8.92542e-23)
(0.03781 -0.00171158 1.17552e-22)
(0.0472163 -0.00187426 1.84574e-21)
(0.0572761 -0.00201528 1.16354e-21)
(0.0678545 -0.0021293 -2.40689e-22)
(0.0787892 -0.00221018 4.31609e-22)
(0.0899141 -0.0022514 -1.71757e-21)
(0.100949 -0.00224382 -1.62072e-22)
(0.111855 -0.00219738 1.96481e-21)
(-0.000312142 0.000347301 3.57294e-21)
(-0.00135542 0.000543943 -3.1843e-21)
(-0.00259117 0.000430654 -3.85845e-22)
(-0.00318165 0.000104619 -3.34054e-21)
(-0.00292783 -0.00035974 7.08298e-21)
(-0.00161233 -0.000911932 -7.78262e-21)
(0.000834285 -0.00151544 -8.14171e-21)
(0.00443928 -0.00214437 1.35297e-21)
(0.00918428 -0.00277982 -3.60563e-21)
(0.0150264 -0.00340752 -1.66858e-21)
(0.021904 -0.00401593 5.27212e-21)
(0.0297417 -0.00459474 -4.40377e-21)
(0.0384517 -0.00513353 2.12356e-21)
(0.0479329 -0.0056208 1.12523e-21)
(0.0580685 -0.00604308 -7.37398e-21)
(0.0687236 -0.00638442 -3.80934e-21)
(0.0797353 -0.00662635 -1.20172e-21)
(0.0909382 -0.00674927 -6.57858e-21)
(0.102044 -0.00672582 4.42392e-21)
(0.113047 -0.00658484 -7.53275e-22)
(-0.000326812 0.000574751 5.02168e-21)
(-0.00135654 0.000897433 9.6005e-21)
(-0.00253961 0.000705915 -6.70466e-21)
(-0.00305386 0.000161279 -4.75421e-21)
(-0.00270454 -0.000612721 -1.72557e-21)
(-0.00128002 -0.00153228 1.09227e-21)
(0.00128599 -0.00253671 1.31253e-20)
(0.00501814 -0.00358306 -1.32241e-21)
(0.00989628 -0.00463992 6.08836e-21)
(0.0158762 -0.00568362 -1.3304e-21)
(0.0228954 -0.00669502 6.50855e-21)
(0.0308778 -0.007657 2.57052e-21)
(0.039735 -0.00855229 5.5861e-21)
(0.0493658 -0.00936176 3.97814e-21)
(0.059653 -0.010063 1.74437e-20)
(0.0704612 -0.0106295 -1.45813e-22)
(0.0816268 -0.0110303 -4.55004e-21)
(0.0929855 -0.0112326 -2.55554e-21)
(0.104232 -0.0111912 -6.28424e-21)
(0.11543 -0.0109506 1.5139e-20)
(-0.000348372 0.000796165 -7.53246e-22)
(-0.00135719 0.00123729 1.48116e-21)
(-0.00246093 0.000963443 4.51854e-21)
(-0.00286064 0.000198313 1.16741e-20)
(-0.00236798 -0.000885455 -7.51343e-21)
(-0.000779954 -0.00217124 6.51999e-21)
(0.00196507 -0.00357452 -1.65457e-20)
(0.0058878 -0.00503548 1.32089e-21)
(0.0109655 -0.00651043 -1.52196e-20)
(0.0171519 -0.00796644 -9.89996e-21)
(0.0243832 -0.00937689 -1.70397e-20)
(0.0325822 -0.010718 -2.09706e-21)
(0.04166 -0.0119657 -1.65657e-20)
(0.0515147 -0.0130934 -1.15169e-21)
(0.0620287 -0.0140698 2.50443e-21)
(0.0730662 -0.0148577 -8.80555e-24)
(0.0844619 -0.0154139 1.1092e-20)
(0.0960536 -0.0156918 6.70782e-21)
(0.107511 -0.015629 -1.16146e-20)
(0.119 -0.0152804 -4.8703e-21)
(-0.000376298 0.0010092 -6.64235e-21)
(-0.00135617 0.00155819 -5.6097e-21)
(-0.0023535 0.00119629 -4.07093e-21)
(-0.00260014 0.000208031 -8.90223e-21)
(-0.00191623 -0.00118568 5.92941e-21)
(-0.00011022 -0.0028361 3.27094e-21)
(0.00287333 -0.00463529 5.03854e-21)
(0.00704993 -0.00650695 -9.72885e-21)
(0.0123933 -0.00839533 2.30641e-20)
(0.0188546 -0.0102585 2.46957e-20)
(0.0263681 -0.0120625 2.70857e-21)
(0.0348555 -0.013777 5.2649e-21)
(0.0442266 -0.0153715 -1.00321e-20)
(0.0543791 -0.0168119 1.39477e-20)
(0.0651947 -0.0180581 -3.12723e-21)
(0.0765369 -0.0190623 -7.73493e-21)
(0.0882383 -0.0197689 -4.94365e-21)
(0.10014 -0.0201169 1.11136e-20)
(0.111878 -0.0200279 5.8794e-21)
(0.123752 -0.0195596 -1.191e-20)
(-0.000409898 0.00121157 6.62989e-21)
(-0.00135186 0.00185491 1.10226e-20)
(-0.00221519 0.00139765 -8.62673e-22)
(-0.00226992 0.000182922 -1.64917e-20)
(-0.00134674 -0.00152092 5.33737e-22)
(0.000731722 -0.00353393 -2.719e-21)
(0.00401318 -0.00572526 -3.68497e-21)
(0.00850669 -0.00800257 1.35583e-21)
(0.0141816 -0.0102984 5.78741e-21)
(0.0209859 -0.012562 -1.01502e-20)
(0.0288513 -0.0147525 -2.62887e-20)
(0.037698 -0.0168332 2.40367e-20)
(0.0474348 -0.0187671 1.48972e-20)
(0.0579583 -0.020513 -1.84214e-20)
(0.0691494 -0.0220222 -1.75967e-20)
(0.0808708 -0.0232362 -8.21425e-22)
(0.0929526 -0.0240867 7.13641e-21)
(0.105239 -0.0244982 -5.73086e-21)
(0.117325 -0.0243769 1.3622e-21)
(0.129679 -0.0237738 1.9658e-20)
(-0.000448317 0.00140102 -1.71775e-20)
(-0.00134228 0.00212237 -6.47757e-21)
(-0.00204334 0.00156093 2.07975e-20)
(-0.00186694 0.000115703 3.03674e-20)
(-0.000656306 -0.00189847 -1.36158e-20)
(0.00174902 -0.00427153 -1.54183e-20)
(0.0053876 -0.00685038 -3.72124e-21)
(0.0102608 -0.00952719 1.77536e-20)
(0.0163327 -0.0122232 5.25999e-22)
(0.0235475 -0.0148792 6.56683e-22)
(0.0318341 -0.0174475 1.20305e-20)
(0.0411106 -0.0198854 -5.8951e-21)
(0.0512845 -0.0221498 1.80521e-20)
(0.0622512 -0.0241925 4.54662e-21)
(0.0738909 -0.0259562 -1.84047e-20)
(0.086065 -0.0273719 1.99441e-20)
(0.0986009 -0.0283587 5.05706e-21)
(0.111347 -0.0288254 2.21005e-20)
(0.123848 -0.0286646 1.20112e-20)
(0.136773 -0.0279086 -3.57707e-20)
(-0.000490537 0.0015754 2.65758e-22)
(-0.00132505 0.00235565 1.27021e-20)
(-0.00183478 0.00167976 -3.82211e-21)
(-0.00138759 -6.40081e-07 -3.01358e-20)
(0.000158834 -0.00232532 2.89683e-20)
(0.00294543 -0.00505541 -3.26296e-22)
(0.00700015 -0.00801631 2.35942e-20)
(0.0123155 -0.0110853 -1.64912e-20)
(0.0188495 -0.0141728 -2.65599e-21)
(0.0265417 -0.0172116 5.5999e-21)
(0.0353179 -0.0201475 9.27217e-21)
(0.0450939 -0.0229321 -2.0933e-20)
(0.0557754 -0.0255164 -6.61637e-21)
(0.0672567 -0.0278456 1.44812e-20)
(0.0794168 -0.0298539 2.83124e-20)
(0.092116 -0.031462 -7.92837e-21)
(0.105178 -0.0325761 -1.37444e-20)
(0.118456 -0.0330884 -5.31577e-20)
(0.131437 -0.0328796 -7.07683e-21)
(0.145022 -0.0319494 4.69038e-21)
(-0.000535389 0.00173263 5.66337e-22)
(-0.00129746 0.00255006 -3.59012e-21)
(-0.00158587 0.00174803 -1.19467e-20)
(-0.000827698 -0.0001728 2.07255e-20)
(0.00110304 -0.00280811 -4.14283e-20)
(0.00432525 -0.0058917 2.14684e-20)
(0.0088549 -0.00922832 -2.56096e-20)
(0.0146744 -0.0126811 -1.72158e-20)
(0.0217349 -0.0161502 -3.58487e-20)
(0.0299709 -0.0195606 3.31832e-21)
(0.0393045 -0.0228523 -1.62298e-20)
(0.0496488 -0.0259715 8.92883e-21)
(0.0609075 -0.0288636 -2.21815e-20)
(0.0729735 -0.0314672 2.6543e-20)
(0.0857245 -0.0337088 1.66116e-21)
(0.0990195 -0.0354985 -3.67979e-20)
(0.112678 -0.0367295 -2.04235e-20)
(0.126559 -0.0372766 2.46264e-21)
(0.140084 -0.0370104 -2.08125e-20)
(0.154415 -0.0358817 -5.71162e-21)
(-0.000581552 0.00187071 -2.44375e-21)
(-0.00125641 0.0027011 1.03481e-20)
(-0.00129251 0.00175995 -9.65637e-21)
(-0.000182571 -0.000407098 -2.51865e-20)
(0.00218125 -0.0033531 3.50036e-20)
(0.00589336 -0.00678612 -2.18984e-20)
(0.0109565 -0.0104913 1.12339e-20)
(0.0173417 -0.0143183 4.49065e-20)
(0.0249927 -0.0181576 1.58207e-20)
(0.0338381 -0.0219273 1.64059e-20)
(0.0437959 -0.0255615 3.77328e-20)
(0.054776 -0.0290014 -1.56277e-20)
(0.0666802 -0.0321874 1.2845e-20)
(0.0793997 -0.035052 -4.94784e-20)
(0.0928107 -0.037514 1.3874e-20)
(0.10677 -0.039473 5.52514e-21)
(0.121094 -0.0408094 5.1171e-20)
(0.135648 -0.0413791 3.00971e-20)
(0.149776 -0.0410453 2.81634e-21)
(0.164938 -0.0396911 1.00098e-20)
(-0.000627567 0.00198777 1.49269e-20)
(-0.0011985 0.00280454 -6.95254e-20)
(-0.000950117 0.00171009 4.42849e-20)
(0.000553008 -0.000709444 -1.30526e-20)
(0.0033989 -0.00396606 -2.40782e-20)
(0.00765516 -0.00774391 3.95923e-20)
(0.0133099 -0.0118095 1.92142e-21)
(0.020322 -0.0160001 -1.72659e-20)
(0.0286266 -0.0201971 1.16669e-20)
(0.0381461 -0.024312 -2.40206e-20)
(0.0487939 -0.0282737 -7.16095e-20)
(0.0604766 -0.032019 -1.85158e-20)
(0.0730933 -0.0354835 -8.77801e-21)
(0.0865334 -0.038594 2.71917e-20)
(0.100672 -0.0412619 -4.19806e-20)
(0.115363 -0.0433767 1.01893e-20)
(0.130419 -0.0448058 -1.50774e-21)
(0.145711 -0.045385 -1.7322e-20)
(0.160502 -0.0449724 1.16477e-20)
(0.176574 -0.043363 -2.76782e-20)
(-0.000671834 0.00208206 -5.60452e-22)
(-0.00112 0.00285643 5.0554e-20)
(-0.000553712 0.00159339 -2.41613e-20)
(0.00138474 -0.0010853 -9.24698e-23)
(0.00476195 -0.00465231 1.29824e-20)
(0.00961653 -0.0087698 -6.88832e-20)
(0.0159208 -0.0131868 2.34834e-20)
(0.0236202 -0.0177293 -1.00994e-20)
(0.032641 -0.0222701 -1.77719e-20)
(0.0428985 -0.0267147 5.75554e-20)
(0.0543009 -0.0309875 2.62307e-20)
(0.0667513 -0.0350211 5.79008e-20)
(0.080146 -0.038747 1.4701e-20)
(0.0943722 -0.0420868 -2.05556e-20)
(0.109303 -0.0449447 2.56877e-20)
(0.124792 -0.0472005 2.32289e-20)
(0.140643 -0.0487085 -1.00215e-21)
(0.156738 -0.0492828 -1.52883e-20)
(0.172248 -0.0487797 3.97796e-20)
(0.189305 -0.0468829 1.18619e-20)
(-0.000712635 0.00215193 2.0493e-20)
(-0.00101687 0.00285309 -4.0263e-20)
(-9.79064e-05 0.00140524 -2.33621e-20)
(0.00231878 -0.00153964 6.48481e-20)
(0.00627685 -0.0054166 -2.58453e-21)
(0.0117838 -0.00986796 5.75786e-20)
(0.0187951 -0.0146266 -2.96851e-20)
(0.0272418 -0.019508 9.00624e-21)
(0.0370403 -0.0243773 7.08019e-20)
(0.0480985 -0.0291348 -5.85345e-20)
(0.0603191 -0.0337007 1.87718e-20)
(0.073601 -0.0380041 -4.68945e-20)
(0.0878374 -0.0419726 3.03276e-20)
(0.102913 -0.0455233 -2.52014e-20)
(0.1187 -0.0485539 -3.26209e-20)
(0.135048 -0.0509345 -1.06442e-20)
(0.151756 -0.0525064 -3.07897e-20)
(0.168716 -0.0530608 3.15727e-20)
(0.184997 -0.052455 -8.24356e-20)
(0.203112 -0.0502366 3.24651e-20)
(-0.000748135 0.0021959 -2.57632e-20)
(-0.000884802 0.00279123 6.19371e-20)
(0.00042308 0.0011414 2.64901e-20)
(0.00336171 -0.00207691 -5.2464e-20)
(0.00795047 -0.00626311 1.30186e-21)
(0.0141638 -0.0110419 7.92105e-21)
(0.0219392 -0.0161314 -1.46046e-21)
(0.0311924 -0.0213376 -5.30655e-20)
(0.0418293 -0.026519 -8.41233e-20)
(0.0537498 -0.031571 2.55573e-20)
(0.0668507 -0.0364105 3.52882e-20)
(0.0810263 -0.0409634 1.5769e-20)
(0.0961666 -0.0451543 -4.83549e-20)
(0.112154 -0.0488961 1.69177e-20)
(0.128856 -0.0520805 2.4829e-20)
(0.146124 -0.0545683 -2.52532e-20)
(0.163749 -0.0561883 -6.38336e-21)
(0.181631 -0.0567067 2.43643e-20)
(0.198732 -0.0559858 5.72534e-20)
(0.217973 -0.0534097 -2.50113e-20)
(-0.000776377 0.00221261 -1.64319e-20)
(-0.000719247 0.0026679 -1.09417e-21)
(0.00101536 0.000798138 -4.24277e-20)
(0.0045205 -0.00270097 6.10944e-20)
(0.00979008 -0.0071954 1.15747e-20)
(0.0167637 -0.0122946 -3.23866e-20)
(0.0253597 -0.0177032 3.82222e-20)
(0.0354779 -0.0232191 2.48691e-20)
(0.047013 -0.0286947 5.171e-21)
(0.0598561 -0.0340216 -8.87956e-21)
(0.073898 -0.0391136 -3.65302e-21)
(0.0890279 -0.0438942 2.58225e-20)
(0.105132 -0.0482855 6.62968e-20)
(0.12209 -0.0521969 5.3104e-20)
(0.139767 -0.0555147 -4.95602e-20)
(0.158011 -0.0580911 -3.48401e-20)
(0.176607 -0.0597423 3.27343e-20)
(0.195466 -0.0602081 -5.20816e-20)
(0.213436 -0.0593595 1.01547e-21)
(0.233863 -0.056388 -2.232e-20)
(-0.000795297 0.00220083 4.24751e-20)
(-0.000515401 0.00248047 -3.5009e-20)
(0.00168534 0.000372267 2.1986e-20)
(0.0058025 -0.00341511 -3.45323e-20)
(0.0118033 -0.00821638 -2.61e-20)
(0.0195909 -0.0136283 2.2326e-20)
(0.0290637 -0.0193434 -6.49219e-20)
(0.0401045 -0.0251526 4.78144e-20)
(0.0525963 -0.0309034 -2.7372e-20)
(0.0664213 -0.036484 -9.5092e-22)
(0.0814632 -0.0418059 -2.73846e-20)
(0.097606 -0.0467909 -2.92689e-20)
(0.114732 -0.051359 -6.64557e-20)
(0.132717 -0.055417 -4.45915e-20)
(0.151425 -0.0588464 6.30112e-20)
(0.1707 -0.0614914 1.50212e-20)
(0.190319 -0.063156 1.40712e-20)
(0.210206 -0.0635518 3.8232e-20)
(0.229086 -0.0625633 1.23029e-20)
(0.250756 -0.0591575 -1.29297e-20)
(-0.000802746 0.00215955 -2.50378e-20)
(-0.000268235 0.0022267 2.14921e-20)
(0.00243974 -0.000138897 1.93988e-20)
(0.00721535 -0.00422196 3.18922e-22)
(0.0139981 -0.00932825 6.62217e-20)
(0.0226532 -0.0150443 -1.07289e-20)
(0.0330583 -0.0210523 1.7146e-20)
(0.0450786 -0.0271375 2.38005e-20)
(0.0585847 -0.0331431 -3.38186e-21)
(0.0734491 -0.0389549 3.7541e-20)
(0.0895484 -0.0444827 1.18741e-22)
(0.106761 -0.0496471 -4.57874e-20)
(0.124964 -0.054367 -1.64157e-20)
(0.144031 -0.0585469 4.05464e-20)
(0.163821 -0.0620647 -2.33321e-20)
(0.184178 -0.0647569 1.88515e-20)
(0.204869 -0.0664163 1.72752e-20)
(0.225832 -0.0667245 -4.77549e-20)
(0.245661 -0.065584 1.44849e-20)
(0.268624 -0.0617042 8.58333e-20)
(-0.000796516 0.0020879 1.93174e-20)
(2.74604e-05 0.00190472 -1.33678e-22)
(0.00328551 -0.000737488 -7.22836e-21)
(0.00876697 -0.00512353 1.30275e-21)
(0.0163828 -0.0105325 6.11217e-21)
(0.0259588 -0.0165435 -2.95354e-20)
(0.0373512 -0.0228299 -9.03928e-21)
(0.0504067 -0.0291724 -6.58763e-20)
(0.0649832 -0.0354113 6.69084e-20)
(0.0809432 -0.0414304 -1.0269e-20)
(0.0981555 -0.0471387 1.0267e-20)
(0.116492 -0.0524561 1.0573e-20)
(0.135826 -0.0573009 6.29829e-21)
(0.156026 -0.0615766 -6.38204e-20)
(0.176949 -0.0651579 -3.67421e-20)
(0.198434 -0.0678748 4.95794e-20)
(0.220241 -0.0695097 -6.82048e-20)
(0.242323 -0.0697123 1.17779e-20)
(0.263135 -0.0684082 -7.48663e-20)
(0.287438 -0.0640146 -5.74654e-20)
(-0.000774317 0.00198518 2.88439e-20)
(0.000377049 0.00151312 -1.69607e-20)
(0.00422983 -0.00142507 -3.37479e-20)
(0.0104655 -0.0061211 1.26464e-20)
(0.0189657 -0.0118299 -1.25254e-19)
(0.0295158 -0.0181258 6.93687e-20)
(0.0419497 -0.024675 8.78674e-20)
(0.0560953 -0.0312553 5.31407e-20)
(0.0717971 -0.0377045 2.51245e-20)
(0.0889071 -0.0439058 1.5353e-20)
(0.107286 -0.0497676 -2.06825e-20)
(0.126799 -0.0552102 -1.11854e-20)
(0.147315 -0.0601517 -6.27903e-20)
(0.168697 -0.0644953 8.47326e-20)
(0.190797 -0.0681139 3.06701e-20)
(0.213454 -0.0708318 -6.69016e-20)
(0.236419 -0.0724219 1.51473e-20)
(0.259657 -0.0725007 2.36466e-20)
(0.281484 -0.0710226 6.46574e-20)
(0.307164 -0.0660752 9.74344e-21)
(-0.000733797 0.00185086 -6.60369e-20)
(0.000786034 0.00105089 -5.2486e-20)
(0.00528006 -0.00220261 -6.35069e-20)
(0.0123194 -0.0072153 2.0367e-20)
(0.0217556 -0.0132203 4.4259e-20)
(0.0333325 -0.0197903 4.13411e-21)
(0.0468616 -0.0265858 -8.92992e-20)
(0.062151 -0.0333831 -5.59812e-20)
(0.0790316 -0.0400187 -8.70017e-20)
(0.0973443 -0.0463757 -4.44652e-20)
(0.116941 -0.0523628 2.43385e-20)
(0.137681 -0.057901 5.12677e-20)
(0.159426 -0.0629096 9.27977e-20)
(0.182035 -0.0672918 -3.65629e-20)
(0.205357 -0.07092 4.22316e-20)
(0.229225 -0.0736138 -3.4442e-20)
(0.253382 -0.0751382 -1.96617e-21)
(0.277812 -0.0750748 -1.88147e-20)
(0.300679 -0.0734132 6.06565e-21)
(0.327768 -0.0678729 2.26141e-20)
(-0.000672561 0.00168457 3.70181e-20)
(0.00126003 0.000517471 5.9667e-20)
(0.00644369 -0.00307047 2.85249e-20)
(0.014337 -0.00840598 -1.89687e-20)
(0.0247611 -0.014703 4.65087e-20)
(0.0374176 -0.0215353 1.7435e-20)
(0.0520946 -0.0285596 -5.56567e-21)
(0.0685803 -0.035552 1.75244e-20)
(0.0866915 -0.0423489 5.72651e-20)
(0.106258 -0.0488338 -2.36054e-20)
(0.127122 -0.0549167 -4.44531e-20)
(0.149136 -0.0605198 -5.89217e-20)
(0.172156 -0.0655641 -7.58069e-20)
(0.196034 -0.0699542 3.73785e-20)
(0.220615 -0.0735626 8.8138e-21)
(0.24573 -0.0762061 4.39408e-20)
(0.271111 -0.0776432 4.17303e-20)
(0.29676 -0.0774193 -5.71128e-20)
(0.32069 -0.0755661 -1.0916e-20)
(0.349214 -0.069395 7.07937e-20)
(-0.000588173 0.00148616 1.47444e-20)
(0.00180474 -8.72758e-05 -9.19061e-21)
(0.00772832 -0.00402841 7.65846e-20)
(0.016527 -0.00969231 -1.08631e-19)
(0.0279911 -0.0162763 -7.43793e-20)
(0.0417793 -0.0233582 -6.00439e-20)
(0.0576562 -0.0305928 3.12549e-20)
(0.0753896 -0.0377573 2.78007e-20)
(0.0947816 -0.0446891 -4.18484e-21)
(0.11565 -0.0512731 1.67628e-20)
(0.13783 -0.057421 4.56461e-20)
(0.161162 -0.063057 1.12189e-19)
(0.185498 -0.0681043 2.16744e-20)
(0.210684 -0.07247 -2.51354e-20)
(0.23656 -0.076028 6.54152e-21)
(0.262953 -0.0785936 3.31622e-20)
(0.289585 -0.0799208 4.96266e-20)
(0.316477 -0.0795183 4.81915e-20)
(0.341485 -0.077467 2.9482e-20)
(0.371463 -0.0706289 -1.26976e-20)
(-0.000478172 0.00125562 -1.33534e-20)
(0.00242592 -0.000763033 -9.51598e-20)
(0.0091416 -0.00507555 -1.22869e-19)
(0.0188981 -0.0110726 9.96088e-20)
(0.0314545 -0.0179377 2.4954e-20)
(0.0464262 -0.0252556 1.06985e-19)
(0.063554 -0.0326809 -6.4681e-20)
(0.082585 -0.0399936 -3.44542e-20)
(0.103306 -0.0470329 -1.56041e-20)
(0.125524 -0.0536859 -6.64171e-21)
(0.149063 -0.0598668 -9.82794e-21)
(0.173756 -0.0655024 -1.13616e-19)
(0.199447 -0.0705188 9.09021e-21)
(0.225977 -0.0748263 -1.48166e-20)
(0.253178 -0.0783019 -5.79669e-21)
(0.280875 -0.0807605 -2.25683e-20)
(0.308779 -0.0819546 -8.2044e-20)
(0.336931 -0.0813554 2.08894e-20)
(0.36303 -0.0791014 -5.87297e-20)
(0.394473 -0.0715627 -2.45876e-21)
(-0.000340083 0.000993169 5.34705e-20)
(0.00312936 -0.00150903 9.84941e-20)
(0.0106912 -0.00621036 1.32703e-19)
(0.0214588 -0.0125446 -8.90002e-20)
(0.0351599 -0.0196839 -2.54031e-20)
(0.0513666 -0.0272232 -1.21829e-19)
(0.0697953 -0.0348186 1.29797e-19)
(0.0901723 -0.0422544 1.02026e-20)
(0.11227 -0.0493727 1.43189e-20)
(0.135881 -0.0560637 -1.48639e-20)
(0.160821 -0.0622444 -4.36249e-20)
(0.186915 -0.0678452 1.26151e-19)
(0.213996 -0.0727956 -8.0438e-20)
(0.2419 -0.07701 4.4372e-20)
(0.270454 -0.0803694 2.98965e-20)
(0.299476 -0.0826909 -2.21356e-20)
(0.328668 -0.0837277 1.1323e-20)
(0.358094 -0.0829138 -2.1381e-20)
(0.38529 -0.0804546 5.61822e-20)
(0.418204 -0.0721846 -1.25446e-20)
(-0.000171425 0.000699173 8.30474e-21)
(0.00392084 -0.00232406 -6.73835e-20)
(0.0123848 -0.0074307 -1.54689e-20)
(0.0242177 -0.0141051 1.74002e-19)
(0.0391162 -0.0215107 -2.94886e-20)
(0.0566086 -0.0292557 5.7384e-20)
(0.0763872 -0.0369997 -1.23971e-19)
(0.0981571 -0.0445325 1.65659e-20)
(0.121675 -0.0517002 -2.23265e-20)
(0.146722 -0.0583971 4.09947e-20)
(0.173102 -0.0645438 5.02326e-20)
(0.200632 -0.0700742 -1.4719e-19)
(0.229137 -0.0749224 2.04476e-20)
(0.258443 -0.0790074 8.48718e-20)
(0.288372 -0.0822157 -3.99665e-20)
(0.318735 -0.0843683 1.35102e-20)
(0.349227 -0.0852226 7.9738e-20)
(0.379931 -0.0841761 -2.77974e-20)
(0.408227 -0.0815116 -5.56976e-20)
(0.44261 -0.0724834 -4.92704e-20)
(3.02767e-05 0.000374199 3.16604e-20)
(0.00480613 -0.00320643 3.01485e-20)
(0.0142301 -0.00873378 -6.3887e-20)
(0.0271833 -0.0157502 -9.79496e-20)
(0.0433318 -0.0234131 1.15426e-19)
(0.0621601 -0.0313471 2.18416e-20)
(0.0833363 -0.0392169 -4.31883e-20)
(0.106544 -0.0468196 3.52732e-22)
(0.131526 -0.0540064 8.21642e-20)
(0.158048 -0.0606763 1.00536e-19)
(0.185905 -0.0667539 -7.82216e-20)
(0.214903 -0.0721778 4.22479e-20)
(0.244859 -0.0768865 1.81733e-20)
(0.275592 -0.0808047 7.89599e-21)
(0.306913 -0.0838257 -6.11404e-20)
(0.33863 -0.0857763 -7.9125e-20)
(0.370427 -0.0864217 1.6665e-20)
(0.402409 -0.0851248 -1.73156e-20)
(0.431803 -0.0822571 2.06724e-20)
(0.467644 -0.072448 4.93834e-20)
(0.000267481 1.89924e-05 -3.15385e-20)
(0.00579093 -0.00415401 2.6894e-20)
(0.0162344 -0.0101161 1.26971e-20)
(0.030364 -0.0174751 1.0294e-19)
(0.0478151 -0.0253852 -1.09263e-19)
(0.0680287 -0.0334902 -9.04223e-20)
(0.090649 -0.0414622 1.74378e-20)
(0.115339 -0.0491069 -3.88626e-20)
(0.141823 -0.0562814 1.21119e-20)
(0.169858 -0.0628904 -1.59731e-19)
(0.199225 -0.0688635 5.31309e-20)
(0.229721 -0.0741438 1.89761e-20)
(0.261153 -0.078675 9.3422e-20)
(0.293331 -0.0823883 -3.62734e-20)
(0.326058 -0.0851845 -1.56989e-20)
(0.359136 -0.0868985 1.03642e-19)
(0.392237 -0.0873072 -1.13968e-19)
(0.425491 -0.0857416 9.1647e-21)
(0.455976 -0.0826753 2.45761e-20)
(0.493259 -0.0720677 5.32176e-20)
(0.00054262 -0.000365518 -5.76163e-20)
(0.00688085 -0.00516423 2.1132e-20)
(0.0184052 -0.0115737 -1.25979e-20)
(0.0337678 -0.0192745 -1.76128e-19)
(0.0525739 -0.0274203 6.60263e-20)
(0.0742216 -0.0356774 3.44181e-20)
(0.0983311 -0.0437267 -2.23357e-20)
(0.124544 -0.0513843 7.78839e-20)
(0.15257 -0.0585145 -7.84936e-20)
(0.182151 -0.0650282 1.63859e-19)
(0.213058 -0.0708605 -1.05674e-19)
(0.245078 -0.0759597 -1.37489e-19)
(0.278006 -0.0802751 -3.73839e-20)
(0.311645 -0.0837445 6.06663e-21)
(0.345788 -0.0862774 9.18407e-20)
(0.380228 -0.0877188 -9.70273e-20)
(0.414629 -0.0878613 5.87502e-20)
(0.44914 -0.0860081 1.97837e-21)
(0.480703 -0.0827499 2.11903e-20)
(0.519406 -0.0713319 -1.569e-19)
(0.000858089 -0.000778228 9.65379e-20)
(0.00808143 -0.00623406 -7.39147e-20)
(0.0207497 -0.0131018 6.50867e-20)
(0.0374026 -0.0211421 1.08255e-19)
(0.057616 -0.0295108 -6.5438e-20)
(0.0807456 -0.0378998 6.28141e-20)
(0.106388 -0.0460007 4.77372e-20)
(0.134163 -0.0536413 -6.08744e-20)
(0.163766 -0.0606943 -4.76985e-20)
(0.194925 -0.0670777 -9.10531e-20)
(0.227399 -0.0727325 1.62187e-19)
(0.260963 -0.0776128 1.58807e-19)
(0.295406 -0.0816737 -6.12363e-20)
(0.330516 -0.0848599 5.29238e-20)
(0.366079 -0.0870903 3.53195e-20)
(0.401878 -0.0882217 4.9659e-20)
(0.437568 -0.0880664 -3.07652e-20)
(0.473317 -0.0859055 2.0744e-20)
(0.505944 -0.0824641 7.27398e-20)
(0.546033 -0.0702299 -4.48403e-21)
(0.00121624 -0.00121786 -1.08787e-19)
(0.00939802 -0.00736002 2.33091e-20)
(0.0232747 -0.0146951 -3.08362e-20)
(0.0412759 -0.0230709 -1.61531e-20)
(0.0629485 -0.0316484 1.05747e-20)
(0.0876068 -0.0401478 -2.54059e-20)
(0.114824 -0.0482734 -6.47382e-20)
(0.144199 -0.0558663 9.64891e-20)
(0.175411 -0.0628086 1.16972e-19)
(0.208176 -0.0690262 8.66408e-20)
(0.242239 -0.0744668 -1.37417e-19)
(0.277367 -0.0790903 -1.17252e-19)
(0.313336 -0.082858 -2.08362e-20)
(0.349925 -0.0857215 -4.07784e-20)
(0.386907 -0.0876098 5.28158e-20)
(0.424058 -0.0883925 -3.53023e-20)
(0.461021 -0.0879057 2.31153e-20)
(0.497981 -0.0854153 1.98419e-20)
(0.531653 -0.0817999 -1.30343e-19)
(0.573087 -0.0687505 1.09553e-20)
(0.00161937 -0.00168295 -2.06051e-20)
(0.0108358 -0.00853822 1.4368e-19)
(0.0259869 -0.0163476 1.84639e-20)
(0.0453948 -0.0250534 -5.05404e-20)
(0.0685783 -0.0338239 -7.846e-20)
(0.0948109 -0.042411 1.87749e-20)
(0.123643 -0.0505334 8.72116e-20)
(0.154653 -0.0580471 -3.16903e-20)
(0.187504 -0.0648446 -8.47056e-20)
(0.221899 -0.0708606 -3.35965e-20)
(0.257571 -0.0760501 9.68813e-20)
(0.294276 -0.0803791 -3.47459e-20)
(0.331779 -0.0838153 4.56015e-21)
(0.369849 -0.0863173 -7.57563e-20)
(0.408247 -0.0878236 2.43016e-20)
(0.446737 -0.088218 8.04865e-20)
(0.484954 -0.0873632 4.43479e-20)
(0.523091 -0.0845188 -7.76214e-20)
(0.557788 -0.0807378 -4.42188e-20)
(0.600514 -0.0668818 1.90216e-20)
(0.00206971 -0.0021719 -1.10807e-20)
(0.0123999 -0.00976432 -1.78211e-19)
(0.0288928 -0.0180527 1.19728e-20)
(0.049766 -0.0270809 -4.92116e-20)
(0.0745114 -0.0360273 -3.26594e-20)
(0.102363 -0.0446781 -4.96174e-20)
(0.132848 -0.0527684 5.39622e-20)
(0.165525 -0.0601707 -4.81974e-21)
(0.200043 -0.0667888 -4.75756e-20)
(0.236088 -0.0725673 -3.47782e-21)
(0.273385 -0.0774688 1.01683e-19)
(0.311677 -0.0814663 1.68589e-20)
(0.350718 -0.0845333 6.89747e-20)
(0.390266 -0.0866356 9.13919e-20)
(0.430071 -0.0877208 -3.38408e-20)
(0.469884 -0.0876868 -5.82656e-20)
(0.509331 -0.0864247 -1.91565e-20)
(0.548606 -0.083198 -6.94704e-20)
(0.584308 -0.0792564 5.28612e-21)
(0.628257 -0.0646103 3.01077e-20)
(0.00256943 -0.00268291 -1.88328e-20)
(0.014095 -0.0110336 5.36754e-20)
(0.0319983 -0.0198035 -6.93249e-20)
(0.0543959 -0.0291445 6.64633e-20)
(0.0807536 -0.0382479 1.18215e-19)
(0.110267 -0.0469371 1.30952e-19)
(0.142441 -0.0549655 -2.81721e-20)
(0.176816 -0.0622233 5.64507e-20)
(0.213023 -0.0686271 -6.63973e-20)
(0.250737 -0.0741321 -4.67085e-20)
(0.289669 -0.0787093 -5.08046e-20)
(0.329552 -0.0823387 1.02105e-19)
(0.37013 -0.0850003 -2.87943e-20)
(0.411149 -0.0866662 -6.97957e-20)
(0.452348 -0.0872923 6.58891e-20)
(0.493464 -0.0867899 -8.15322e-20)
(0.534116 -0.0850783 -4.39283e-20)
(0.574486 -0.0814364 1.25605e-19)
(0.611175 -0.077331 3.03497e-20)
(0.656257 -0.0619199 -4.39695e-20)
(0.00312062 -0.00321406 1.11109e-19)
(0.0159257 -0.0123409 5.53396e-20)
(0.035309 -0.0215921 8.93672e-20)
(0.0592899 -0.0312344 1.25997e-20)
(0.0873096 -0.0404742 3.07342e-20)
(0.118526 -0.0491753 -3.12708e-20)
(0.152424 -0.0571109 -3.44801e-20)
(0.188523 -0.0641905 -8.08469e-20)
(0.22644 -0.0703448 -1.86613e-20)
(0.265835 -0.0755404 -2.16795e-20)
(0.30641 -0.0797574 6.45692e-21)
(0.347885 -0.0829835 -4.12893e-20)
(0.389993 -0.0852049 -1.00221e-19)
(0.432471 -0.0863998 2.63356e-20)
(0.475046 -0.086531 -6.99464e-20)
(0.517442 -0.0855215 -7.92972e-21)
(0.559271 -0.0833158 8.74094e-20)
(0.60069 -0.0792199 -1.70412e-20)
(0.638355 -0.0749325 6.33531e-21)
(0.68445 -0.0587903 -2.90424e-20)
(0.00372525 -0.00376324 -3.71437e-20)
(0.0178962 -0.0136806 -1.94122e-20)
(0.0388301 -0.0234103 -4.5771e-20)
(0.0644534 -0.0333402 7.48674e-20)
(0.0941836 -0.0426942 -6.22595e-20)
(0.127144 -0.0513792 4.00298e-20)
(0.162797 -0.0591901 -1.66689e-21)
(0.200644 -0.0660574 -1.29636e-19)
(0.240287 -0.0719268 5.29488e-20)
(0.281374 -0.0767773 2.89372e-20)
(0.323593 -0.0805991 -4.74768e-20)
(0.366654 -0.0833878 -3.39859e-20)
(0.410281 -0.0851364 1.67571e-19)
(0.4542 -0.0858284 -4.20852e-21)
(0.498129 -0.0854321 3.4254e-20)
(0.541781 -0.0838796 5.19216e-20)
(0.584761 -0.081134 -2.35221e-20)
(0.627181 -0.0765392 -8.74629e-20)
(0.665824 -0.0720266 1.18262e-19)
(0.712771 -0.0551981 1.05401e-20)
(0.00438523 -0.00432823 1.03287e-19)
(0.0200105 -0.0150469 9.57894e-21)
(0.0425661 -0.0252495 5.04787e-20)
(0.0698906 -0.0354508 -5.58667e-20)
(0.101379 -0.044895 -4.30045e-20)
(0.13612 -0.0535347 -4.08871e-20)
(0.173558 -0.0611881 -5.37061e-20)
(0.213175 -0.0678084 4.7038e-20)
(0.254557 -0.0733574 7.27101e-20)
(0.29734 -0.0778276 -1.93127e-20)
(0.3412 -0.08122 4.24734e-21)
(0.385838 -0.083539 8.81997e-20)
(0.430967 -0.0847844 -1.62004e-19)
(0.476304 -0.0849453 3.50563e-20)
(0.521561 -0.0839935 6.13292e-20)
(0.566439 -0.0818667 -4.94729e-20)
(0.610544 -0.0785362 2.008e-20)
(0.653924 -0.0733927 5.82022e-20)
(0.693574 -0.0685751 -1.09674e-19)
(0.741155 -0.0511192 7.5425e-20)
(0.00510233 -0.00490663 -1.60137e-19)
(0.0222722 -0.0164335 -3.93308e-20)
(0.0465214 -0.0271003 2.9104e-20)
(0.0756054 -0.0375546 -4.79874e-20)
(0.108899 -0.0470633 5.45772e-20)
(0.145458 -0.055627 -1.41528e-20)
(0.184707 -0.0630894 3.61077e-20)
(0.22611 -0.0694274 6.62977e-20)
(0.269241 -0.0746205 -1.39072e-19)
(0.31372 -0.0786757 1.01813e-19)
(0.359214 -0.0816057 -3.61972e-21)
(0.405412 -0.0834244 -6.54595e-20)
(0.452019 -0.0841394 1.66091e-19)
(0.498746 -0.0837449 -3.28072e-20)
(0.545298 -0.0822155 -6.68794e-21)
(0.591371 -0.0794903 4.28761e-20)
(0.636579 -0.075535 4.08596e-20)
(0.680888 -0.0697916 -2.33556e-21)
(0.721608 -0.0645325 6.57407e-20)
(0.769528 -0.0465021 3.65532e-20)
(0.00587834 -0.00549608 -2.51091e-20)
(0.0246847 -0.0178339 -4.23763e-20)
(0.0506995 -0.0289533 -4.73701e-20)
(0.081601 -0.0396398 1.05166e-19)
(0.116744 -0.0491853 1.45667e-20)
(0.155154 -0.0576411 3.73162e-20)
(0.196239 -0.0648779 6.20566e-20)
(0.239443 -0.0708981 -3.23327e-20)
(0.284327 -0.0756999 4.794e-21)
(0.3305 -0.0793061 -9.12035e-20)
(0.377614 -0.0817419 -1.53651e-20)
(0.42535 -0.083032 3.30829e-20)
(0.473406 -0.0831922 -6.49689e-20)
(0.521486 -0.082223 4.15944e-20)
(0.569295 -0.080101 3.72676e-20)
(0.616529 -0.0767633 2.19374e-20)
(0.662819 -0.0721549 -1.16445e-20)
(0.708045 -0.0657666 -9.78775e-20)
(0.749939 -0.0598252 -6.80369e-20)
(0.797752 -0.0411864 -3.87908e-20)
(0.00671508 -0.00609433 1.0517e-19)
(0.0272512 -0.0192417 4.78054e-20)
(0.0551039 -0.0307988 8.31786e-20)
(0.08788 -0.0416942 -9.59032e-20)
(0.124916 -0.0512469 -4.48029e-21)
(0.16521 -0.0595616 -4.86098e-20)
(0.208151 -0.0665376 -3.59625e-20)
(0.253167 -0.0722041 9.60194e-20)
(0.299805 -0.0765794 2.21287e-19)
(0.347661 -0.0797031 -2.30927e-20)
(0.396377 -0.0816144 2.01117e-20)
(0.445624 -0.0823496 -6.56225e-20)
(0.495092 -0.0819343 -3.02248e-20)
(0.544482 -0.080376 -8.0985e-20)
(0.593502 -0.0776547 -4.84901e-20)
(0.641857 -0.0737043 -2.39749e-20)
(0.689213 -0.0684373 8.72318e-22)
(0.735382 -0.0613776 -1.6745e-19)
(0.778636 -0.054359 1.05721e-19)
(0.825625 -0.0349959 -8.26929e-21)
(0.00761318 -0.00669798 -1.40304e-20)
(0.0299733 -0.020649 -8.79918e-20)
(0.0597361 -0.0326256 -1.32736e-19)
(0.0944431 -0.0437039 -3.51322e-20)
(0.133414 -0.0532325 -5.02361e-20)
(0.175621 -0.0613716 3.0908e-20)
(0.220435 -0.0680506 2.01558e-20)
(0.267271 -0.0733274 -3.11121e-20)
(0.315659 -0.0772414 -1.82912e-19)
(0.365185 -0.0798503 1.90788e-19)
(0.415478 -0.0812082 5.67082e-20)
(0.466201 -0.0813646 -8.9215e-20)
(0.517038 -0.0803563 1.00684e-19)
(0.567688 -0.0782001 8.07863e-20)
(0.617863 -0.0748817 -2.54614e-21)
(0.667289 -0.070335 -2.23377e-21)
(0.715692 -0.0644405 1.00707e-20)
(0.762895 -0.0567343 7.86826e-20)
(0.807967 -0.0482291 -7.3932e-20)
(0.853703 -0.028637 -1.02046e-19)
(0.00856904 -0.00729953 -1.02876e-19)
(0.0328477 -0.0220432 6.64437e-20)
(0.0645921 -0.0344172 1.95598e-20)
(0.101285 -0.0456498 5.0734e-20)
(0.142232 -0.0551211 3.06069e-20)
(0.186378 -0.0630489 -1.81664e-20)
(0.233081 -0.0693945 -4.39914e-20)
(0.281739 -0.0742457 -1.06099e-19)
(0.33187 -0.0776642 4.67724e-20)
(0.383046 -0.079727 -2.08094e-19)
(0.434888 -0.0805047 -7.8236e-20)
(0.487047 -0.0800611 2.03993e-19)
(0.539202 -0.0784459 -9.74654e-20)
(0.59105 -0.0756881 -7.44194e-20)
(0.642314 -0.0717836 1.06401e-20)
(0.692744 -0.0666749 -4.51028e-21)
(0.742147 -0.060229 5.28418e-21)
(0.790462 -0.0520147 4.51062e-20)
(0.83809 -0.0421129 -1.58989e-20)
(0.885504 -0.0244613 -2.71119e-20)
(0.00958262 -0.00789534 2.34586e-20)
(0.0358744 -0.0234157 8.43729e-20)
(0.0696718 -0.0361618 3.84381e-20)
(0.108405 -0.0475176 -1.76958e-20)
(0.151364 -0.0568966 -8.25164e-21)
(0.197474 -0.0645764 -5.50251e-20)
(0.246077 -0.0705517 3.87028e-20)
(0.296557 -0.0749412 7.32198e-20)
(0.348418 -0.0778308 -6.07709e-20)
(0.401221 -0.0793176 1.79912e-19)
(0.454576 -0.0794899 9.73856e-20)
(0.508124 -0.0784272 -3.78041e-20)