/*--------------------------------*- C++ -*----------------------------------*\
  =========                 |
  \\      /  F ield         | OpenFOAM: The Open Source CFD Toolbox
   \\    /   O peration     | Website:  https://openfoam.org
    \\  /    A nd           | Version:  7
     \\/     M anipulation  |
\*---------------------------------------------------------------------------*/
FoamFile
{
    version     2.0;
    format      ascii;
    class       volScalarField;
    location    "25";
    object      p;
}
// * * * * * * * * * * * * * * * * * * * * * * * * * * * * * * * * * * * * * //

dimensions      [0 2 -2 0 0 0 0];

internalField   nonuniform List<scalar> 
10500
(
-0.398453
-0.386559
-0.367858
-0.341864
-0.315712
-0.287635
-0.2613
-0.234252
-0.213306
-0.187417
-0.399467
-0.387079
-0.368322
-0.342191
-0.315998
-0.287868
-0.261515
-0.234359
-0.213535
-0.186967
-0.401485
-0.388114
-0.369247
-0.34284
-0.316566
-0.288328
-0.261941
-0.23457
-0.213987
-0.186081
-0.404488
-0.389653
-0.37062
-0.343803
-0.317406
-0.289009
-0.262569
-0.234883
-0.214655
-0.184787
-0.408446
-0.391681
-0.372426
-0.345065
-0.318506
-0.289897
-0.263387
-0.235292
-0.215524
-0.183127
-0.413327
-0.394173
-0.374645
-0.346611
-0.319849
-0.290979
-0.264378
-0.23579
-0.216571
-0.181154
-0.419089
-0.397102
-0.377254
-0.348421
-0.321416
-0.292237
-0.265522
-0.236369
-0.217769
-0.178932
-0.425653
-0.400457
-0.380224
-0.350474
-0.323184
-0.293651
-0.266797
-0.237021
-0.219082
-0.176533
-0.432972
-0.4042
-0.383526
-0.352745
-0.32513
-0.295199
-0.268176
-0.237739
-0.220465
-0.174036
-0.44099
-0.408288
-0.387128
-0.35521
-0.327228
-0.296859
-0.269631
-0.238513
-0.221867
-0.17152
-0.449633
-0.412686
-0.390996
-0.357842
-0.329453
-0.298608
-0.271131
-0.239336
-0.223227
-0.169066
-0.458826
-0.417358
-0.395094
-0.360614
-0.331777
-0.300421
-0.272645
-0.240198
-0.224479
-0.166749
-0.46849
-0.422262
-0.399387
-0.3635
-0.334174
-0.302273
-0.274138
-0.241089
-0.225548
-0.164636
-0.478543
-0.427358
-0.403838
-0.366471
-0.336615
-0.304138
-0.275577
-0.241998
-0.226356
-0.16279
-0.4889
-0.432603
-0.408408
-0.369501
-0.339072
-0.305988
-0.276925
-0.242912
-0.226824
-0.161292
-0.499475
-0.437953
-0.413059
-0.372559
-0.341516
-0.307792
-0.278145
-0.243816
-0.226874
-0.160231
-0.510178
-0.443363
-0.417752
-0.375616
-0.343913
-0.309516
-0.279203
-0.244694
-0.226398
-0.159549
-0.520922
-0.44879
-0.422446
-0.37864
-0.346231
-0.311122
-0.280065
-0.245538
-0.225223
-0.15893
-0.531615
-0.454188
-0.4271
-0.381597
-0.348431
-0.312568
-0.280705
-0.246345
-0.223292
-0.159209
-0.542127
-0.459481
-0.431648
-0.384435
-0.350465
-0.313797
-0.281086
-0.247047
-0.221134
-0.1661
-0.552277
-0.464549
-0.435996
-0.387083
-0.352268
-0.314746
-0.281147
-0.247414
-0.219331
-0.186956
-0.562178
-0.469506
-0.440205
-0.389566
-0.353827
-0.315367
-0.28082
-0.247222
-0.216798
-0.193705
-0.571661
-0.474235
-0.444174
-0.3918
-0.355066
-0.315585
-0.280036
-0.246318
-0.213741
-0.194591
-0.580584
-0.478639
-0.447819
-0.393713
-0.355914
-0.31533
-0.278734
-0.24466
-0.210437
-0.1933
-0.588837
-0.48265
-0.451069
-0.395239
-0.356299
-0.314532
-0.276853
-0.242232
-0.206785
-0.190359
-0.59631
-0.486199
-0.45385
-0.396305
-0.356149
-0.313123
-0.274332
-0.239018
-0.202671
-0.18602
-0.602887
-0.489205
-0.456081
-0.396833
-0.355384
-0.311034
-0.271115
-0.235008
-0.198024
-0.18058
-0.608447
-0.491586
-0.457671
-0.396741
-0.353926
-0.308199
-0.267147
-0.230196
-0.192791
-0.174258
-0.612869
-0.493251
-0.458529
-0.395941
-0.351691
-0.304554
-0.262382
-0.224577
-0.18693
-0.167201
-0.616026
-0.494109
-0.458556
-0.394342
-0.348601
-0.300041
-0.25678
-0.218152
-0.180413
-0.159502
-0.617794
-0.494061
-0.457651
-0.391854
-0.344577
-0.294604
-0.250306
-0.210921
-0.173223
-0.151221
-0.618046
-0.493007
-0.45571
-0.388384
-0.339544
-0.288195
-0.242937
-0.202888
-0.165354
-0.142396
-0.616655
-0.490846
-0.452628
-0.383843
-0.333432
-0.280775
-0.234653
-0.19406
-0.156806
-0.133053
-0.613499
-0.487474
-0.448303
-0.378144
-0.32618
-0.272308
-0.225446
-0.184449
-0.147588
-0.123208
-0.608454
-0.482787
-0.442632
-0.371205
-0.317732
-0.262771
-0.21531
-0.174068
-0.137713
-0.112875
-0.601405
-0.476683
-0.435517
-0.362952
-0.308042
-0.252147
-0.204251
-0.162934
-0.127201
-0.102068
-0.592242
-0.469064
-0.426867
-0.353317
-0.297073
-0.240427
-0.192278
-0.151067
-0.116073
-0.0908009
-0.580875
-0.459844
-0.416601
-0.342244
-0.2848
-0.227612
-0.179409
-0.138492
-0.104354
-0.0790904
-0.567215
-0.448938
-0.404644
-0.329686
-0.271207
-0.213712
-0.165665
-0.125235
-0.0920722
-0.0669557
-0.551059
-0.436207
-0.390905
-0.315597
-0.256286
-0.198741
-0.151075
-0.111326
-0.0792562
-0.0544181
-0.532082
-0.421454
-0.375274
-0.299929
-0.240036
-0.182724
-0.135669
-0.0967964
-0.0659367
-0.0415023
-0.510964
-0.404976
-0.357884
-0.282748
-0.222501
-0.165701
-0.119486
-0.0816827
-0.0521471
-0.0282388
-0.487426
-0.386594
-0.338646
-0.264026
-0.203698
-0.147706
-0.102568
-0.0660227
-0.0379226
-0.0146557
-0.461333
-0.366219
-0.317526
-0.24377
-0.183661
-0.128785
-0.0849582
-0.0498571
-0.023308
-0.000777636
-0.432687
-0.343839
-0.294534
-0.22201
-0.162438
-0.108989
-0.0667057
-0.0332275
-0.00835001
0.0133643
-0.401516
-0.319459
-0.269698
-0.198792
-0.140088
-0.0883763
-0.0478618
-0.016176
0.00697102
0.0276845
-0.367859
-0.293095
-0.243061
-0.174173
-0.116677
-0.067009
-0.0284821
0.00124173
0.0225754
0.0421869
-0.331771
-0.264783
-0.214679
-0.148222
-0.0922788
-0.0449546
-0.00862433
0.0189856
0.0384206
0.0568286
-0.293331
-0.234574
-0.184629
-0.121021
-0.0669753
-0.0222856
0.0116516
0.0370053
0.054469
0.0715654
-0.252637
-0.202537
-0.153003
-0.0926613
-0.0408552
0.000922903
0.0322819
0.0552484
0.0706798
0.0863535
-0.209808
-0.168763
-0.119905
-0.0632455
-0.0140137
0.0245916
0.0532014
0.0736616
0.0870105
0.101148
-0.164985
-0.13336
-0.085452
-0.032888
0.0134488
0.0486379
0.0743425
0.0921901
0.103418
0.1159
-0.118325
-0.0964596
-0.0497763
-0.0017078
0.0414269
0.0729763
0.0956358
0.110778
0.11986
0.130559
-0.0700036
-0.0581777
-0.0130485
0.030167
0.0698111
0.0975194
0.11701
0.129367
0.136292
0.145069
-0.0202163
-0.0186946
0.0245911
0.0626011
0.0984885
0.122177
0.138393
0.1479
0.15267
0.159367
0.0308125
0.02183
0.062973
0.0954536
0.127343
0.146859
0.159711
0.166317
0.168947
0.173384
0.0828626
0.063203
0.101917
0.128579
0.156257
0.171473
0.180888
0.184561
0.185093
0.187051
0.135672
0.105216
0.141234
0.161826
0.185111
0.195926
0.20185
0.202579
0.201094
0.200276
0.188981
0.147658
0.180732
0.195045
0.213785
0.220124
0.222521
0.220318
0.216886
0.212823
0.242733
0.190393
0.220242
0.228087
0.242159
0.243976
0.242827
0.237714
0.232188
0.224191
0.297064
0.233346
0.25961
0.26081
0.270116
0.267389
0.2627
0.254697
0.246714
0.233963
0.350446
0.275834
0.298481
0.293021
0.29753
0.290276
0.282076
0.271216
0.261054
0.245933
0.403017
0.317792
0.336713
0.324582
0.324288
0.312547
0.300885
0.287206
0.274879
0.258259
0.454681
0.359052
0.374129
0.355349
0.350277
0.334117
0.319059
0.302614
0.288081
0.27014
0.505144
0.399373
0.410531
0.385174
0.375383
0.3549
0.336533
0.317395
0.300674
0.281442
0.554102
0.438512
0.445721
0.413913
0.3995
0.374817
0.353244
0.3315
0.312653
0.292178
0.601272
0.476237
0.479512
0.441426
0.422523
0.393789
0.369132
0.344883
0.323989
0.302331
0.646384
0.512326
0.511723
0.467581
0.444352
0.411741
0.384142
0.357503
0.334654
0.311866
0.689171
0.546562
0.54218
0.49225
0.464892
0.428603
0.398218
0.369319
0.344624
0.320756
0.72938
0.578739
0.57072
0.515313
0.484054
0.444309
0.411311
0.380292
0.35387
0.328981
0.766769
0.60866
0.597187
0.536657
0.501754
0.458796
0.423372
0.390388
0.362369
0.336521
0.801113
0.636144
0.621438
0.556178
0.517915
0.472006
0.434359
0.399574
0.370096
0.34336
0.832201
0.661021
0.64334
0.573779
0.532464
0.483886
0.44423
0.407819
0.377027
0.349481
0.859843
0.683137
0.662775
0.589375
0.545339
0.494388
0.45295
0.415096
0.383141
0.35487
0.883867
0.702356
0.679635
0.602889
0.556483
0.503471
0.460485
0.42138
0.38842
0.359515
0.904125
0.718559
0.693829
0.614253
0.565846
0.511097
0.466809
0.42665
0.392845
0.363404
0.92049
0.731643
0.705279
0.623412
0.573386
0.517236
0.471896
0.430888
0.396404
0.366527
0.932857
0.741527
0.71392
0.63032
0.57907
0.521861
0.475729
0.43408
0.399084
0.368877
0.941152
0.748149
0.719707
0.634944
0.582873
0.524955
0.478292
0.436214
0.400876
0.370448
0.94532
0.751473
0.722609
0.637261
0.584778
0.526505
0.479576
0.437284
0.401773
0.371234
0.94532
0.751473
0.722609
0.637261
0.584778
0.526505
0.479576
0.437284
0.401773
0.371234
0.941152
0.748149
0.719707
0.634944
0.582873
0.524955
0.478292
0.436214
0.400876
0.370448
0.932857
0.741527
0.71392
0.63032
0.57907
0.521861
0.475729
0.43408
0.399084
0.368877
0.92049
0.731643
0.705279
0.623412
0.573386
0.517236
0.471896
0.430888
0.396404
0.366527
0.904125
0.718559
0.693829
0.614253
0.565846
0.511097
0.466809
0.42665
0.392845
0.363404
0.883867
0.702356
0.679635
0.602889
0.556483
0.503471
0.460485
0.42138
0.38842
0.359515
0.859843
0.683137
0.662775
0.589375
0.545339
0.494388
0.45295
0.415096
0.383141
0.35487
0.832201
0.661021
0.64334
0.573779
0.532464
0.483886
0.44423
0.407819
0.377027
0.349481
0.801113
0.636144
0.621438
0.556178
0.517915
0.472006
0.434359
0.399574
0.370096
0.34336
0.766769
0.60866
0.597187
0.536657
0.501754
0.458796
0.423372
0.390388
0.362369
0.336521
0.72938
0.578739
0.57072
0.515313
0.484054
0.444309
0.411311
0.380292
0.35387
0.328981
0.689171
0.546562
0.54218
0.49225
0.464892
0.428603
0.398218
0.369319
0.344624
0.320756
0.646384
0.512326
0.511723
0.467581
0.444352
0.411741
0.384142
0.357503
0.334654
0.311866
0.601272
0.476237
0.479512
0.441426
0.422523
0.393789
0.369132
0.344883
0.323989
0.302331
0.554102
0.438512
0.445721
0.413913
0.3995
0.374817
0.353244
0.3315
0.312653
0.292178
0.505144
0.399373
0.410531
0.385174
0.375383
0.3549
0.336533
0.317395
0.300674
0.281442
0.454681
0.359052
0.374129
0.355349
0.350277
0.334117
0.319059
0.302614
0.288081
0.27014
0.403017
0.317792
0.336713
0.324582
0.324288
0.312547
0.300885
0.287206
0.274879
0.258259
0.350446
0.275834
0.298481
0.293021
0.29753
0.290276
0.282076
0.271216
0.261054
0.245933
0.297064
0.233346
0.25961
0.26081
0.270116
0.267389
0.2627
0.254697
0.246714
0.233963
0.242733
0.190393
0.220242
0.228087
0.242159
0.243976
0.242827
0.237714
0.232188
0.224191
0.188981
0.147658
0.180732
0.195045
0.213785
0.220124
0.222521
0.220318
0.216886
0.212823
0.135672
0.105216
0.141234
0.161826
0.185111
0.195926
0.20185
0.202579
0.201094
0.200276
0.0828626
0.063203
0.101917
0.128579
0.156257
0.171473
0.180888
0.184561
0.185093
0.187051
0.0308125
0.02183
0.0629731
0.0954536
0.127343
0.146859
0.159711
0.166317
0.168947
0.173384
-0.0202163
-0.0186946
0.0245911
0.0626011
0.0984885
0.122177
0.138393
0.1479
0.15267
0.159367
-0.0700036
-0.0581777
-0.0130485
0.030167
0.0698111
0.0975194
0.11701
0.129367
0.136292
0.145069
-0.118325
-0.0964596
-0.0497763
-0.0017078
0.0414269
0.0729763
0.0956358
0.110778
0.11986
0.130559
-0.164985
-0.13336
-0.085452
-0.032888
0.0134488
0.0486379
0.0743425
0.0921901
0.103418
0.1159
-0.209808
-0.168763
-0.119905
-0.0632455
-0.0140137
0.0245916
0.0532014
0.0736616
0.0870105
0.101148
-0.252637
-0.202537
-0.153003
-0.0926613
-0.0408552
0.000922904
0.0322819
0.0552484
0.0706798
0.0863535
-0.293331
-0.234574
-0.184629
-0.121021
-0.0669753
-0.0222856
0.0116516
0.0370053
0.054469
0.0715654
-0.331771
-0.264783
-0.214679
-0.148222
-0.0922788
-0.0449546
-0.00862432
0.0189856
0.0384206
0.0568286
-0.367859
-0.293095
-0.243061
-0.174173
-0.116677
-0.067009
-0.0284821
0.00124173
0.0225754
0.0421869
-0.401516
-0.319459
-0.269698
-0.198792
-0.140088
-0.0883763
-0.0478618
-0.016176
0.00697102
0.0276845
-0.432687
-0.343839
-0.294534
-0.22201
-0.162438
-0.108989
-0.0667057
-0.0332275
-0.00835001
0.0133643
-0.461333
-0.366219
-0.317526
-0.24377
-0.183661
-0.128785
-0.0849582
-0.0498571
-0.023308
-0.000777635
-0.487426
-0.386594
-0.338646
-0.264026
-0.203698
-0.147706
-0.102568
-0.0660227
-0.0379226
-0.0146557
-0.510964
-0.404976
-0.357884
-0.282748
-0.222501
-0.165701
-0.119486
-0.0816827
-0.0521471
-0.0282388
-0.532082
-0.421454
-0.375274
-0.299929
-0.240036
-0.182724
-0.135669
-0.0967964
-0.0659367
-0.0415023
-0.551059
-0.436207
-0.390905
-0.315597
-0.256286
-0.198741
-0.151075
-0.111326
-0.0792562
-0.0544181
-0.567215
-0.448938
-0.404644
-0.329686
-0.271207
-0.213712
-0.165665
-0.125235
-0.0920722
-0.0669557
-0.580875
-0.459844
-0.416601
-0.342244
-0.2848
-0.227612
-0.179409
-0.138492
-0.104354
-0.0790904
-0.592242
-0.469064
-0.426867
-0.353317
-0.297073
-0.240427
-0.192278
-0.151067
-0.116073
-0.0908009
-0.601405
-0.476683
-0.435517
-0.362952
-0.308042
-0.252147
-0.204251
-0.162934
-0.127201
-0.102068
-0.608454
-0.482787
-0.442632
-0.371205
-0.317732
-0.262771
-0.21531
-0.174068
-0.137713
-0.112875
-0.613499
-0.487474
-0.448303
-0.378144
-0.32618
-0.272308
-0.225446
-0.184449
-0.147588
-0.123208
-0.616655
-0.490846
-0.452628
-0.383843
-0.333432
-0.280775
-0.234653
-0.19406
-0.156806
-0.133053
-0.618046
-0.493007
-0.45571
-0.388384
-0.339544
-0.288195
-0.242937
-0.202888
-0.165354
-0.142396
-0.617794
-0.494061
-0.457651
-0.391854
-0.344577
-0.294604
-0.250306
-0.210921
-0.173223
-0.151221
-0.616026
-0.494109
-0.458556
-0.394342
-0.348601
-0.300041
-0.25678
-0.218152
-0.180413
-0.159502
-0.612869
-0.493251
-0.458529
-0.395941
-0.351691
-0.304554
-0.262382
-0.224577
-0.18693
-0.167201
-0.608447
-0.491586
-0.457671
-0.396741
-0.353926
-0.308199
-0.267147
-0.230196
-0.192791
-0.174258
-0.602887
-0.489205
-0.456081
-0.396833
-0.355384
-0.311034
-0.271115
-0.235008
-0.198024
-0.18058
-0.59631
-0.486199
-0.45385
-0.396305
-0.356149
-0.313123
-0.274332
-0.239018
-0.202671
-0.18602
-0.588837
-0.48265
-0.451069
-0.395239
-0.356299
-0.314532
-0.276853
-0.242232
-0.206785
-0.190359
-0.580584
-0.478639
-0.447819
-0.393713
-0.355914
-0.31533
-0.278734
-0.24466
-0.210437
-0.1933
-0.571661
-0.474235
-0.444174
-0.3918
-0.355066
-0.315585
-0.280036
-0.246318
-0.213741
-0.194591
-0.562178
-0.469506
-0.440205
-0.389566
-0.353827
-0.315367
-0.28082
-0.247222
-0.216798
-0.193705
-0.552277
-0.464549
-0.435996
-0.387083
-0.352268
-0.314746
-0.281147
-0.247414
-0.219331
-0.186956
-0.542127
-0.459481
-0.431648
-0.384435
-0.350465
-0.313797
-0.281086
-0.247047
-0.221134
-0.1661
-0.531615
-0.454188
-0.4271
-0.381597
-0.348431
-0.312568
-0.280705
-0.246345
-0.223292
-0.159209
-0.520922
-0.44879
-0.422446
-0.37864
-0.346231
-0.311122
-0.280065
-0.245538
-0.225223
-0.15893
-0.510178
-0.443363
-0.417752
-0.375616
-0.343913
-0.309516
-0.279203
-0.244694
-0.226398
-0.159549
-0.499475
-0.437953
-0.413059
-0.372559
-0.341516
-0.307792
-0.278145
-0.243816
-0.226874
-0.160231
-0.4889
-0.432603
-0.408408
-0.369501
-0.339072
-0.305988
-0.276925
-0.242912
-0.226824
-0.161292
-0.478543
-0.427358
-0.403838
-0.366471
-0.336615
-0.304138
-0.275577
-0.241998
-0.226356
-0.16279
-0.46849
-0.422262
-0.399387
-0.3635
-0.334174
-0.302273
-0.274138
-0.241089
-0.225548
-0.164636
-0.458826
-0.417358
-0.395094
-0.360614
-0.331777
-0.300421
-0.272645
-0.240198
-0.224479
-0.166749
-0.449633
-0.412686
-0.390996
-0.357842
-0.329453
-0.298608
-0.271131
-0.239336
-0.223227
-0.169066
-0.44099
-0.408288
-0.387128
-0.35521
-0.327228
-0.296859
-0.269631
-0.238513
-0.221867
-0.17152
-0.432972
-0.4042
-0.383526
-0.352745
-0.32513
-0.295199
-0.268176
-0.237739
-0.220465
-0.174036
-0.425653
-0.400457
-0.380224
-0.350474
-0.323184
-0.293651
-0.266797
-0.237021
-0.219082
-0.176533
-0.419089
-0.397102
-0.377254
-0.348421
-0.321416
-0.292237
-0.265522
-0.236369
-0.217769
-0.178932
-0.413327
-0.394173
-0.374645
-0.346611
-0.319849
-0.290979
-0.264378
-0.23579
-0.216571
-0.181154
-0.408446
-0.391681
-0.372426
-0.345065
-0.318506
-0.289897
-0.263387
-0.235292
-0.215524
-0.183127
-0.404488
-0.389653
-0.37062
-0.343803
-0.317406
-0.289009
-0.262569
-0.234883
-0.214655
-0.184787
-0.401485
-0.388114
-0.369247
-0.34284
-0.316566
-0.288328
-0.261941
-0.23457
-0.213987
-0.186081
-0.399467
-0.387079
-0.368322
-0.342191
-0.315998
-0.287868
-0.261515
-0.234359
-0.213535
-0.186967
-0.398453
-0.386559
-0.367858
-0.341864
-0.315712
-0.287635
-0.2613
-0.234252
-0.213306
-0.187417
-0.179218
-0.171374
-0.163205
-0.155366
-0.147648
-0.140074
-0.132697
-0.125535
-0.118604
-0.111918
-0.105488
-0.0993215
-0.093423
-0.0877952
-0.0824379
-0.0773487
-0.0725234
-0.0679554
-0.0636372
-0.0595595
-0.0557122
-0.0520843
-0.0486645
-0.0454407
-0.0424012
-0.0395339
-0.0368272
-0.0342695
-0.0318501
-0.0295583
-0.0273843
-0.0253189
-0.0233538
-0.0214801
-0.0196926
-0.0179809
-0.0163465
-0.0147694
-0.0132723
-0.0117997
-0.0104402
-0.00902345
-0.00784135
-0.0063695
-0.00551045
-0.00369007
-0.00359464
-0.000610969
-0.00254677
0.00391185
-0.179803
-0.171791
-0.163479
-0.155599
-0.147847
-0.140245
-0.132848
-0.125671
-0.118727
-0.112031
-0.105592
-0.0994181
-0.093513
-0.0878792
-0.0825164
-0.0774221
-0.072592
-0.0680195
-0.063697
-0.0596152
-0.055764
-0.0521325
-0.0487091
-0.045482
-0.0424393
-0.039569
-0.0368594
-0.0342991
-0.0318771
-0.0295829
-0.0274068
-0.0253392
-0.0233722
-0.0214967
-0.0197076
-0.0179943
-0.0163584
-0.0147801
-0.0132817
-0.0118081
-0.0104475
-0.00902993
-0.00784677
-0.00637469
-0.00551406
-0.00369505
-0.00359582
-0.000618533
-0.00254284
0.00389244
-0.18096
-0.17262
-0.164024
-0.156063
-0.148245
-0.140587
-0.13315
-0.125941
-0.118973
-0.112256
-0.1058
-0.099611
-0.0936926
-0.0880469
-0.0826731
-0.0775688
-0.0727291
-0.0681476
-0.0638166
-0.0597267
-0.0558677
-0.0522288
-0.0487983
-0.0455646
-0.0425155
-0.0396392
-0.0369239
-0.0343582
-0.0319311
-0.0296322
-0.0274516
-0.0253799
-0.023409
-0.0215299
-0.0197375
-0.018021
-0.0163824
-0.0148013
-0.0133005
-0.0118247
-0.0104621
-0.00904287
-0.00785761
-0.00638505
-0.00552129
-0.00370498
-0.00359818
-0.000633613
-0.00253503
0.00385383
-0.182661
-0.173849
-0.164837
-0.156755
-0.148839
-0.141097
-0.133599
-0.126345
-0.11934
-0.112593
-0.106111
-0.0998992
-0.0939612
-0.0882977
-0.0829078
-0.0777884
-0.0729345
-0.0683397
-0.0639959
-0.0598938
-0.0560233
-0.0523733
-0.0489323
-0.0456885
-0.0426299
-0.0397445
-0.0370207
-0.0344469
-0.0320123
-0.0297062
-0.0275189
-0.025441
-0.0234642
-0.0215797
-0.0197822
-0.0180612
-0.0164182
-0.0148332
-0.0133287
-0.0118497
-0.0104838
-0.00906225
-0.00787384
-0.00640057
-0.00553213
-0.00371983
-0.00360175
-0.000656116
-0.00252344
0.00379638
-0.184861
-0.175457
-0.165909
-0.157668
-0.149623
-0.141771
-0.134194
-0.126879
-0.119825
-0.113037
-0.106522
-0.100281
-0.0943173
-0.0886307
-0.0832195
-0.0780803
-0.0732078
-0.0685953
-0.0642347
-0.0601166
-0.0562307
-0.052566
-0.049111
-0.0458538
-0.0427825
-0.039885
-0.0371498
-0.0345652
-0.0321205
-0.0298049
-0.0276087
-0.0255224
-0.0235379
-0.0216461
-0.0198419
-0.0181146
-0.0164659
-0.0148756
-0.0133663
-0.0118829
-0.0105128
-0.00908804
-0.00789543
-0.00642121
-0.00554655
-0.00373956
-0.00360656
-0.000685904
-0.00250821
0.00372066
-0.187496
-0.177416
-0.167227
-0.158793
-0.15059
-0.142604
-0.134929
-0.127539
-0.120424
-0.113587
-0.10703
-0.100754
-0.0947592
-0.0890443
-0.0836072
-0.0784437
-0.0735484
-0.0689142
-0.0645327
-0.0603947
-0.0564897
-0.0528068
-0.0493343
-0.0460604
-0.0429732
-0.0400607
-0.0373112
-0.0347132
-0.0322557
-0.0299282
-0.0277208
-0.0256241
-0.0236298
-0.021729
-0.0199164
-0.0181813
-0.0165255
-0.0149286
-0.0134132
-0.0119243
-0.010549
-0.00912017
-0.00792234
-0.00644692
-0.00556453
-0.0037641
-0.00361262
-0.000722793
-0.00248952
0.00362743
-0.190487
-0.179684
-0.168772
-0.160116
-0.15173
-0.143586
-0.135796
-0.128318
-0.121132
-0.114238
-0.107633
-0.101316
-0.0952845
-0.0895368
-0.0840693
-0.0788775
-0.0739554
-0.0692955
-0.0648896
-0.0607279
-0.0568003
-0.0530956
-0.0496022
-0.0463084
-0.0432022
-0.0402716
-0.037505
-0.0348908
-0.032418
-0.0300761
-0.0278553
-0.025746
-0.02374
-0.0218283
-0.0200057
-0.0182612
-0.0165967
-0.0149919
-0.0134692
-0.0119738
-0.0105922
-0.00915859
-0.0079545
-0.00647764
-0.00558605
-0.00379337
-0.00361997
-0.000766561
-0.00246761
0.00351759
-0.193734
-0.182205
-0.170517
-0.161617
-0.153028
-0.144706
-0.136787
-0.129209
-0.121944
-0.114985
-0.108326
-0.101963
-0.0958905
-0.0901059
-0.0846043
-0.0793805
-0.0744278
-0.0697388
-0.0653047
-0.0611159
-0.0571621
-0.0534322
-0.0499146
-0.0465977
-0.0434693
-0.0405177
-0.037731
-0.0350979
-0.0326073
-0.0302487
-0.0280122
-0.0258882
-0.0238685
-0.021944
-0.0201096
-0.0183542
-0.0166797
-0.0150656
-0.0135344
-0.0120314
-0.0106424
-0.0092032
-0.00799186
-0.0065133
-0.00561108
-0.00382726
-0.00362867
-0.000816945
-0.00244273
0.00339218
-0.197124
-0.184908
-0.172426
-0.16327
-0.154462
-0.145949
-0.137889
-0.130202
-0.12285
-0.115821
-0.109104
-0.10269
-0.0965738
-0.0907489
-0.0852101
-0.0799509
-0.0749645
-0.0702429
-0.0657773
-0.061558
-0.0575747
-0.0538163
-0.0502713
-0.046928
-0.0437744
-0.0407988
-0.0379893
-0.0353345
-0.0328235
-0.0304457
-0.0281912
-0.0260503
-0.024015
-0.022076
-0.020228
-0.0184601
-0.0167741
-0.0151495
-0.0136085
-0.0120968
-0.0106995
-0.00925393
-0.00803434
-0.00655381
-0.00563956
-0.00386567
-0.00363876
-0.000873651
-0.00241518
0.00325239
-0.200525
-0.187705
-0.174451
-0.165041
-0.156008
-0.147295
-0.139087
-0.131285
-0.123841
-0.116739
-0.10996
-0.103494
-0.0973305
-0.0914629
-0.0858841
-0.0805869
-0.0755639
-0.0708068
-0.0663066
-0.0620538
-0.0580377
-0.0542476
-0.050672
-0.0472993
-0.0441174
-0.0411148
-0.0382796
-0.0356005
-0.0330666
-0.0306671
-0.0283923
-0.0262325
-0.0241795
-0.022224
-0.0203608
-0.0185789
-0.0168799
-0.0152434
-0.0136915
-0.0121701
-0.0107633
-0.00931065
-0.00808183
-0.00659907
-0.00567146
-0.00390847
-0.00365029
-0.000936355
-0.00238529
0.00309952
-0.203796
-0.190494
-0.176537
-0.166888
-0.157631
-0.14872
-0.140362
-0.132444
-0.124907
-0.11773
-0.110888
-0.104368
-0.0981563
-0.0922444
-0.0866237
-0.0812864
-0.0762243
-0.0714291
-0.0668916
-0.0626022
-0.0585505
-0.0547256
-0.0511164
-0.0477111
-0.044498
-0.0414655
-0.0386018
-0.0358957
-0.0333362
-0.0309127
-0.0286153
-0.0264344
-0.0243617
-0.0223879
-0.0205078
-0.0187102
-0.0169969
-0.0153472
-0.0137832
-0.012251
-0.0108338
-0.00937325
-0.00813424
-0.00664898
-0.00570672
-0.00395552
-0.0036633
-0.00100471
-0.00235339
0.00293493
-0.206789
-0.193159
-0.178612
-0.168756
-0.159293
-0.150194
-0.141693
-0.133661
-0.126035
-0.118783
-0.11188
-0.105306
-0.0990462
-0.0930893
-0.0874257
-0.0820467
-0.0769437
-0.0721082
-0.0675309
-0.0632023
-0.0591121
-0.0552497
-0.0516038
-0.048163
-0.0449158
-0.0418505
-0.0389556
-0.0362198
-0.0336322
-0.0311822
-0.02886
-0.0266559
-0.0245615
-0.0225676
-0.0206689
-0.0188541
-0.0171249
-0.0154607
-0.0138835
-0.0123394
-0.0109108
-0.00944159
-0.00819146
-0.00670342
-0.00574528
-0.00400666
-0.00367787
-0.00107833
-0.00231986
0.00276007
-0.209359
-0.195572
-0.180595
-0.170586
-0.160946
-0.151684
-0.143055
-0.13492
-0.12721
-0.119889
-0.112928
-0.106302
-0.0999952
-0.0939937
-0.0882868
-0.0828653
-0.07772
-0.0728424
-0.0682233
-0.0638531
-0.0597219
-0.0558191
-0.0521338
-0.0486548
-0.0453706
-0.0422697
-0.0393408
-0.0365727
-0.0339545
-0.0314756
-0.0291262
-0.0268967
-0.0247787
-0.0227628
-0.0208438
-0.0190102
-0.0172638
-0.0155838
-0.0139921
-0.0124351
-0.0109942
-0.00951554
-0.00825338
-0.00676227
-0.00578709
-0.00406176
-0.00369405
-0.00115685
-0.00228506
0.00257643
-0.211369
-0.197607
-0.182399
-0.172306
-0.162537
-0.153152
-0.14442
-0.136199
-0.128417
-0.121036
-0.114022
-0.107349
-0.100998
-0.0949531
-0.0892036
-0.0837393
-0.078551
-0.07363
-0.0689672
-0.0645534
-0.0603788
-0.0564332
-0.0527058
-0.0491858
-0.0458618
-0.0427227
-0.0397571
-0.036954
-0.0343026
-0.0317925
-0.0294137
-0.0271566
-0.025013
-0.0229733
-0.0210322
-0.0191783
-0.0174133
-0.0157162
-0.0141088
-0.0125379
-0.0110837
-0.00959493
-0.00831986
-0.00682538
-0.00583207
-0.00412061
-0.00371189
-0.00123985
-0.00224938
0.00238551
-0.212706
-0.199136
-0.183925
-0.173833
-0.164001
-0.154547
-0.14575
-0.137469
-0.129634
-0.122207
-0.11515
-0.108436
-0.102044
-0.0959598
-0.0901694
-0.0846632
-0.0794319
-0.0744669
-0.0697593
-0.0653003
-0.0610804
-0.0570897
-0.0533179
-0.0497543
-0.0463881
-0.0432081
-0.0402033
-0.0373627
-0.0346757
-0.032132
-0.0297216
-0.0274349
-0.0252637
-0.0231984
-0.0212337
-0.0193579
-0.0175729
-0.0158575
-0.0142333
-0.0126476
-0.011179
-0.0096795
-0.00839068
-0.00689255
-0.0058801
-0.00418302
-0.00373142
-0.0013269
-0.00221322
0.00218884
-0.21323
-0.199997
-0.185041
-0.17506
-0.165259
-0.155813
-0.147003
-0.138698
-0.130836
-0.12338
-0.116293
-0.109548
-0.103123
-0.0970026
-0.0911746
-0.0856284
-0.0803551
-0.0753462
-0.0705934
-0.0660882
-0.0618216
-0.0577842
-0.0539661
-0.0503569
-0.0469462
-0.0437231
-0.0406768
-0.0377965
-0.0350719
-0.0324924
-0.0300485
-0.0277303
-0.0255298
-0.0234372
-0.0214473
-0.0195483
-0.0177419
-0.0160071
-0.0143651
-0.0127636
-0.0112799
-0.00976895
-0.00846561
-0.00696354
-0.00593104
-0.00424873
-0.00375269
-0.00141754
-0.002177
0.00198791
-0.212687
-0.200024
-0.185668
-0.175949
-0.166299
-0.156954
-0.14819
-0.139901
-0.132039
-0.124572
-0.117467
-0.110698
-0.104246
-0.0980935
-0.0922298
-0.0866446
-0.0813293
-0.0762759
-0.0714768
-0.0669238
-0.0626086
-0.0585222
-0.0546554
-0.0509981
-0.0475403
-0.0442715
-0.0411811
-0.0382587
-0.0354938
-0.0328763
-0.0303965
-0.0280447
-0.0258129
-0.0236912
-0.0216743
-0.0197505
-0.0179215
-0.0161659
-0.014505
-0.0128867
-0.0113869
-0.00986371
-0.00854499
-0.00703863
-0.00598514
-0.00431786
-0.00377587
-0.00151161
-0.002141
0.00178395
-0.211351
-0.199471
-0.185956
-0.176586
-0.167197
-0.158043
-0.149384
-0.141151
-0.133315
-0.125853
-0.11874
-0.111953
-0.105475
-0.0992916
-0.0933911
-0.0877647
-0.0824043
-0.0773029
-0.0724531
-0.0678477
-0.063479
-0.0593387
-0.0554179
-0.0517073
-0.0481972
-0.0448775
-0.0417381
-0.0387686
-0.0359588
-0.0332989
-0.0307791
-0.02839
-0.0261232
-0.0239691
-0.0219224
-0.0199711
-0.0181169
-0.0163384
-0.0146565
-0.0130198
-0.0115023
-0.0099658
-0.0086304
-0.00711908
-0.0060433
-0.00439114
-0.00380137
-0.00160953
-0.0021051
0.00157785
-0.210731
-0.198244
-0.185328
-0.1763
-0.167334
-0.158547
-0.150141
-0.142079
-0.134358
-0.12697
-0.119901
-0.113137
-0.106665
-0.100475
-0.0945574
-0.0889049
-0.0835111
-0.0783701
-0.0734758
-0.0688219
-0.0644018
-0.0602081
-0.0562328
-0.0524673
-0.0489026
-0.0455292
-0.0423375
-0.0393175
-0.0364594
-0.0337535
-0.0311903
-0.0287604
-0.0264556
-0.0242663
-0.0221871
-0.0202058
-0.0183243
-0.0165211
-0.0148166
-0.01316
-0.0116236
-0.0100728
-0.0087197
-0.00720296
-0.00610406
-0.00446707
-0.00382853
-0.00170995
-0.00206982
0.00137182
-0.205136
-0.192995
-0.181721
-0.17344
-0.165263
-0.157154
-0.149259
-0.141584
-0.134158
-0.126993
-0.120094
-0.11346
-0.107087
-0.10097
-0.0951051
-0.0894887
-0.0841169
-0.0789861
-0.074092
-0.0694302
-0.0649954
-0.0607817
-0.0567821
-0.0529893
-0.049395
-0.0459907
-0.0427673
-0.0397156
-0.0368262
-0.0340897
-0.0314971
-0.029039
-0.0267076
-0.0244931
-0.0223905
-0.0203875
-0.0184861
-0.0166645
-0.0149433
-0.0132719
-0.0117213
-0.01016
-0.00879327
-0.00727361
-0.00615561
-0.00453419
-0.00385296
-0.00180279
-0.00204093
0.00117378
-0.177629
-0.189637
-0.181349
-0.173364
-0.165335
-0.157251
-0.149342
-0.141644
-0.134192
-0.127004
-0.120085
-0.113433
-0.107045
-0.100917
-0.0950438
-0.0894215
-0.0840463
-0.0789141
-0.0740207
-0.0693613
-0.0649302
-0.0607213
-0.0567275
-0.052941
-0.0493536
-0.0459563
-0.04274
-0.0396951
-0.0368123
-0.0340819
-0.031495
-0.029042
-0.0267151
-0.0245046
-0.0224054
-0.0204051
-0.0185059
-0.0166859
-0.014966
-0.0132955
-0.0117452
-0.010185
-0.0088166
-0.00730096
-0.00617592
-0.00456888
-0.00386499
-0.00185982
-0.00202949
0.00103041
-0.167024
-0.184701
-0.17789
-0.17075
-0.163345
-0.155682
-0.148094
-0.14065
-0.133404
-0.126384
-0.119603
-0.113067
-0.106776
-0.100728
-0.0949218
-0.0893556
-0.0840267
-0.0789325
-0.0740698
-0.0694345
-0.0650222
-0.0608272
-0.0568431
-0.053063
-0.0494788
-0.0460824
-0.0428649
-0.0398173
-0.0369305
-0.0341952
-0.0316026
-0.0291434
-0.0268101
-0.024593
-0.0224872
-0.0204804
-0.0185749
-0.0167489
-0.015023
-0.0133474
-0.0117913
-0.0102278
-0.00885284
-0.00733806
-0.00620191
-0.00460678
-0.00387675
-0.0019143
-0.00201178
0.000912823
-0.162951
-0.179412
-0.173504
-0.167224
-0.160536
-0.15341
-0.14625
-0.139154
-0.132194
-0.125412
-0.118831
-0.112462
-0.106312
-0.100384
-0.0946789
-0.0891979
-0.0839403
-0.0789051
-0.0740906
-0.069494
-0.065112
-0.06094
-0.0569727
-0.0532039
-0.0496265
-0.0462329
-0.0430152
-0.0399648
-0.0370732
-0.0343316
-0.0317316
-0.0292644
-0.0269226
-0.0246967
-0.0225823
-0.0205671
-0.0186534
-0.0168198
-0.0150864
-0.0134048
-0.0118415
-0.0102745
-0.00889122
-0.00737838
-0.00622838
-0.00464869
-0.00388647
-0.0019763
-0.00198606
0.00078388
-0.160061
-0.174371
-0.169339
-0.163735
-0.157682
-0.151072
-0.144332
-0.137584
-0.130914
-0.124375
-0.117998
-0.111802
-0.105799
-0.0999958
-0.0943971
-0.0890057
-0.0838235
-0.0788511
-0.0740882
-0.0695335
-0.0651846
-0.0610382
-0.0570899
-0.0533343
-0.0497654
-0.0463763
-0.0431595
-0.0401074
-0.037212
-0.0344649
-0.0318582
-0.0293834
-0.0270335
-0.0247993
-0.0226765
-0.0206531
-0.0187314
-0.0168905
-0.0151496
-0.0134622
-0.0118917
-0.0103216
-0.00892978
-0.00741949
-0.00625501
-0.00469209
-0.00389598
-0.0020412
-0.00195866
0.000648599
-0.157462
-0.169446
-0.165292
-0.160247
-0.154768
-0.148658
-0.142336
-0.135942
-0.129569
-0.12328
-0.117116
-0.111101
-0.105252
-0.0995795
-0.0940921
-0.088795
-0.0836921
-0.0787859
-0.0740775
-0.0695671
-0.0652535
-0.0611344
-0.0572065
-0.0534654
-0.0499059
-0.0465219
-0.0433068
-0.0402534
-0.0373544
-0.0346019
-0.0319886
-0.0295062
-0.0271482
-0.0249056
-0.0227742
-0.0207426
-0.0188126
-0.0169642
-0.0152157
-0.0135222
-0.0119443
-0.010371
-0.0089703
-0.0074627
-0.00628314
-0.00473768
-0.00390633
-0.00210898
-0.00193062
0.000507337
-0.154994
-0.164572
-0.161203
-0.156661
-0.151716
-0.146103
-0.140207
-0.134179
-0.128119
-0.122097
-0.116159
-0.110338
-0.104654
-0.0991229
-0.0937557
-0.0885605
-0.0835434
-0.0787088
-0.0740595
-0.0695972
-0.0653219
-0.0612327
-0.0573272
-0.0536021
-0.050053
-0.0466749
-0.0434619
-0.0404075
-0.0375049
-0.034747
-0.0321268
-0.0296366
-0.02727
-0.0250186
-0.0228781
-0.0208377
-0.018899
-0.0170427
-0.015286