/*--------------------------------*- C++ -*----------------------------------*\
  =========                 |
  \\      /  F ield         | OpenFOAM: The Open Source CFD Toolbox
   \\    /   O peration     | Website:  https://openfoam.org
    \\  /    A nd           | Version:  7
     \\/     M anipulation  |
\*---------------------------------------------------------------------------*/
FoamFile
{
    version     2.0;
    format      ascii;
    class       volVectorField;
    location    "25";
    object      U;
}
// * * * * * * * * * * * * * * * * * * * * * * * * * * * * * * * * * * * * * //

dimensions      [0 1 -1 0 0 0 0];

internalField   nonuniform List<vector> 
10500
(
(-0.00460882 0.000537538 -5.69509e-21)
(-0.00631734 -0.000278064 7.99555e-21)
(0.000263457 -0.00130621 -4.40178e-20)
(0.0148474 -0.0024396 -3.76007e-20)
(0.036458 -0.00344874 -1.03148e-20)
(0.0632235 -0.00436964 6.00646e-21)
(0.0940413 -0.00517679 -3.26461e-20)
(0.128763 -0.00589781 -4.63173e-21)
(0.164341 -0.00635836 -9.63698e-21)
(0.204122 -0.00682445 7.20342e-21)
(-0.00460563 0.00158749 -9.51929e-21)
(-0.00585265 -0.000866983 -1.99233e-20)
(0.00142385 -0.00394225 -3.68346e-20)
(0.0167697 -0.00732768 5.71909e-20)
(0.0391998 -0.0103365 2.60486e-20)
(0.0668146 -0.0130782 -9.94686e-21)
(0.0984955 -0.0154775 3.54703e-20)
(0.134135 -0.0176138 -4.16374e-20)
(0.170484 -0.0189791 -8.09541e-22)
(0.211507 -0.0203227 -1.33868e-20)
(-0.00459218 0.00256249 -6.30771e-20)
(-0.0049135 -0.00155412 6.31248e-20)
(0.00375167 -0.00664931 7.07109e-20)
(0.0206161 -0.0122427 -1.71746e-19)
(0.0446775 -0.0171953 -5.51664e-20)
(0.0739804 -0.0216947 1.27364e-19)
(0.107374 -0.0256198 1.66883e-20)
(0.144829 -0.0290915 1.04115e-19)
(0.182703 -0.0313129 4.52698e-20)
(0.226171 -0.0333707 1.10446e-20)
(-0.00455452 0.00341466 6.10052e-20)
(-0.00348059 -0.00240203 -1.09788e-19)
(0.00726091 -0.00947184 -1.25331e-19)
(0.0263904 -0.0171998 1.98109e-19)
(0.0528791 -0.0240037 1.413e-20)
(0.0846876 -0.0301563 -7.28791e-21)
(0.120616 -0.0354978 1.44855e-19)
(0.160748 -0.0401729 1.18754e-20)
(0.20086 -0.0431724 -2.01207e-20)
(0.247905 -0.0456759 1.0049e-19)
(-0.00447212 0.00409911 -2.75214e-19)
(-0.00152543 -0.0034685 5.40682e-22)
(0.0119721 -0.0124492 -6.86667e-20)
(0.0340978 -0.0222095 -1.57304e-20)
(0.0637868 -0.0307363 2.15507e-19)
(0.0988864 -0.0383977 -3.30942e-19)
(0.138132 -0.0450044 -2.41164e-19)
(0.181745 -0.0507019 9.82824e-20)
(0.224753 -0.0543758 7.16919e-20)
(0.276389 -0.0569576 -6.78592e-20)
(-0.00431817 0.00457459 4.79659e-19)
(0.000988955 -0.00480441 1.25226e-19)
(0.0179119 -0.0156138 4.68598e-19)
(0.0437445 -0.0272759 1.07573e-19)
(0.0773759 -0.0373623 1.7075e-19)
(0.11651 -0.04635 3.1587e-19)
(0.159801 -0.0540319 -1.2224e-19)
(0.207624 -0.060525 -2.57022e-19)
(0.254112 -0.0647491 3.00808e-20)
(0.311201 -0.0669531 1.39066e-19)
(-0.00405986 0.00480415 -1.5037e-19)
(0.00410726 -0.00645161 3.35123e-20)
(0.0251121 -0.0189899 -4.24104e-19)
(0.0553374 -0.0323954 1.36732e-19)
(0.0936151 -0.0438447 -1.4688e-19)
(0.137476 -0.0539399 2.64337e-20)
(0.185473 -0.062471 1.11391e-19)
(0.238142 -0.0694919 9.04002e-21)
(0.288606 -0.0741265 -3.48756e-19)
(0.351813 -0.0754242 -2.20921e-19)
(-0.00365955 0.00475884 -1.8306e-19)
(0.00788168 -0.00844398 -3.64989e-19)
(0.0336088 -0.0225914 4.5519e-19)
(0.0688828 -0.0375545 -1.50597e-21)
(0.112465 -0.0501384 -2.01001e-19)
(0.161681 -0.0610895 -4.25889e-19)
(0.21497 -0.070211 4.95243e-19)
(0.273007 -0.0774573 -2.40522e-19)
(0.32784 -0.082352 1.70712e-19)
(0.397595 -0.0821635 1.83204e-20)
(-0.00307642 0.00441761 1.18759e-19)
(0.01237 -0.0108057 4.96579e-19)
(0.0434418 -0.0264207 -3.6975e-19)
(0.0843859 -0.0427293 -4.20788e-19)
(0.13388 -0.0561897 1.07255e-19)
(0.189007 -0.0677154 9.94716e-20)
(0.24808 -0.0771402 4.02997e-19)
(0.31188 -0.0842824 2.98715e-19)
(0.371365 -0.0892799 -1.15411e-19)
(0.447824 -0.0870019 1.83752e-19)
(-0.00226595 0.00376464 -1.91833e-19)
(0.0176339 -0.013547 -5.04433e-20)
(0.054653 -0.0304674 -2.52291e-19)
(0.101849 -0.0478836 4.34219e-21)
(0.1578 -0.0619352 -1.37932e-20)
(0.219316 -0.0737285 1.85934e-19)
(0.284565 -0.0831462 4.27322e-20)
(0.354377 -0.089837 3.8849e-19)
(0.418674 -0.0947753 1.12502e-19)
(0.501692 -0.0898142 -1.94079e-19)
(-0.00118075 0.00279134 1.99359e-20)
(0.0237379 -0.0166648 -4.84162e-19)
(0.0672844 -0.0347071 3.9898e-19)
(0.121271 -0.0529687 -2.17406e-19)
(0.184159 -0.0673015 -6.46009e-20)
(0.252448 -0.0790347 -2.4328e-20)
(0.324155 -0.0881172 1.3825e-20)
(0.400072 -0.0940027 -5.86539e-19)
(0.469217 -0.0987149 3.06125e-20)
(0.558322 -0.0905243 4.36575e-20)
(0.000227998 0.00149762 -4.72747e-19)
(0.0307481 -0.0201426 7.60739e-19)
(0.0813767 -0.0391011 -2.66259e-19)
(0.142643 -0.0579225 6.53829e-19)
(0.212876 -0.0722053 -6.00673e-19)
(0.288226 -0.0835354 -2.48307e-19)
(0.366549 -0.091943 3.06809e-19)
(0.4485 -0.0966758 3.147e-19)
(0.522401 -0.100988 -1.80117e-19)
(0.616786 -0.0891091 -1.6775e-19)
(0.00200966 -0.000108175 3.92804e-19)
(0.0387302 -0.0239502 -1.05791e-19)
(0.0969673 -0.0435959 5.02824e-19)
(0.16595 -0.0626694 -8.39423e-20)
(0.243855 -0.0765535 4.47847e-19)
(0.326447 -0.0871285 7.91629e-19)
(0.411419 -0.0945179 -3.83738e-19)
(0.49916 -0.0977714 3.34113e-20)
(0.577598 -0.1015 3.48069e-19)
(0.676127 -0.0855996 2.03911e-19)
(0.00421315 -0.00200953 -1.90686e-19)
(0.0477478 -0.0280431 -5.79608e-19)
(0.114088 -0.0481232 -3.57628e-19)
(0.191164 -0.067121 -3.99024e-19)
(0.276983 -0.0802444 -4.77353e-20)
(0.366887 -0.0897107 -6.89986e-19)
(0.458406 -0.095743 2.09285e-19)
(0.551523 -0.0972278 -2.98552e-19)
(0.634159 -0.100169 -2.54969e-19)
(0.735383 -0.0800823 -3.82115e-20)
(0.00688605 -0.00418186 3.25566e-19)
(0.0578605 -0.0323632 -5.01296e-20)
(0.132763 -0.0526003 -3.11624e-19)
(0.218248 -0.0711767 3.57233e-19)
(0.312129 -0.0831695 6.68303e-19)
(0.409298 -0.0911791 -6.0993e-20)
(0.507121 -0.09553 -5.78554e-19)
(0.605042 -0.0950103 2.76534e-19)
(0.691422 -0.0969382 4.82873e-19)
(0.793613 -0.0727063 7.74379e-20)
(0.0100735 -0.00659281 2.07269e-19)
(0.0691218 -0.0368389 7.86947e-20)
(0.153007 -0.0569308 1.10464e-19)
(0.247146 -0.0747251 -2.91425e-19)
(0.349141 -0.085215 -4.94562e-19)
(0.453405 -0.0914351 8.00267e-19)
(0.557153 -0.093805 4.18216e-19)
(0.659157 -0.0911152 -3.38484e-20)
(0.748725 -0.0917717 -3.02833e-19)
(0.849934 -0.0636907 -1.37711e-19)
(0.0138176 -0.00920267 5.39979e-19)
(0.0815771 -0.0413857 -1.3441e-19)
(0.174819 -0.061006 1.71125e-19)
(0.277786 -0.0776457 1.39716e-19)
(0.387843 -0.0862653 -8.95186e-20)
(0.498913 -0.0903865 1.11194e-19)
(0.608065 -0.090513 2.00651e-19)
(0.713311 -0.0855726 3.42138e-19)
(0.805414 -0.0846552 -2.50851e-19)
(0.903514 -0.053282 -8.63786e-20)
(0.0181561 -0.0119653 -8.79621e-19)
(0.0952626 -0.0459083 6.41114e-19)
(0.198188 -0.064707 -3.38148e-19)
(0.310076 -0.079812 -5.56522e-19)
(0.428038 -0.0862057 -1.01599e-19)
(0.5455 -0.0879519 -6.62585e-19)
(0.659405 -0.0856235 -7.14057e-20)
(0.766963 -0.0784491 -1.93484e-19)
(0.860851 -0.0755675 5.14445e-19)
(0.953528 -0.0416532 -1.18588e-19)
(0.0231227 -0.0148287 -1.31855e-19)
(0.110203 -0.0503014 -2.9329e-19)
(0.223084 -0.0679063 8.73222e-19)
(0.343903 -0.0810937 8.05342e-19)
(0.469502 -0.0849262 -9.69021e-20)
(0.592825 -0.0840637 6.44734e-19)
(0.710708 -0.0791361 -1.58873e-19)
(0.819615 -0.0698468 5.8406e-20)
(0.91447 -0.0644755 3.07867e-19)
(0.999269 -0.0291895 5.72608e-19)
(0.0287425 -0.017733 1.77964e-19)
(0.126407 -0.054449 1.65509e-19)
(0.249455 -0.0704684 5.86964e-21)
(0.379127 -0.0813587 -2.80329e-19)
(0.511987 -0.082324 2.73204e-19)
(0.640527 -0.0786711 -2.16889e-19)
(0.761503 -0.0710841 1.55153e-19)
(0.870812 -0.0598931 1.91298e-19)
(0.96585 -0.0515128 2.64021e-19)
(1.04115 -0.0178486 -1.83891e-19)
(0.0350254 -0.020605 -2.31932e-19)
(0.143861 -0.0582203 -8.25186e-20)
(0.277223 -0.0722482 -6.65668e-19)
(0.415582 -0.0804738 3.3869e-19)
(0.55522 -0.0783055 -2.72513e-19)
(0.688227 -0.0717416 -4.10522e-19)
(0.811316 -0.0615304 -7.13473e-19)
(0.92008 -0.0487287 -2.17092e-19)
(1.01443 -0.0373517 7.98384e-19)
(1.08271 -0.011132 -4.38718e-20)
(0.0419798 -0.0233752 9.40115e-19)
(0.162538 -0.0614872 -3.89468e-19)
(0.306291 -0.0731076 3.50928e-19)
(0.453076 -0.0783183 1.2344e-19)
(0.598905 -0.0727967 9.33387e-19)
(0.735536 -0.0632665 3.54836e-20)
(0.859684 -0.050557 7.28521e-19)
(0.966888 -0.0365031 -1.16252e-19)
(1.05873 -0.0231947 -2.73244e-19)
(1.12212 -0.00720599 -3.14845e-19)
(0.0496196 -0.0259836 -7.95017e-19)
(0.18241 -0.064132 7.48031e-19)
(0.336553 -0.0729199 -2.3966e-19)
(0.491406 -0.0747877 5.58488e-19)
(0.642741 -0.065745 -6.83734e-19)
(0.782073 -0.0532605 -4.38464e-20)
(0.906184 -0.0382583 1.45172e-19)
(1.01081 -0.0232952 1.7995e-19)
(1.09841 -0.00890106 -4.64542e-19)
(1.15715 0.000170352 8.80046e-20)
(0.0579428 -0.02836 -6.19214e-19)
(0.20342 -0.0660277 -5.45495e-19)
(0.367872 -0.0715569 -2.46936e-19)
(0.530345 -0.0697859 -1.03647e-18)
(0.686411 -0.0571153 4.21157e-20)
(0.827464 -0.0417599 -8.34849e-20)
(0.950439 -0.0247421 -1.78055e-19)
(1.05151 -0.00919482 -4.05607e-19)
(1.13358 0.00558842 7.66856e-19)
(1.1871 0.0101544 1.79688e-19)
(0.0669355 -0.0304306 6.18188e-19)
(0.225495 -0.0670473 -1.46146e-19)
(0.40009 -0.0688977 -2.241e-20)
(0.569643 -0.0632327 1.82768e-19)
(0.729593 -0.0468951 -2.83628e-19)
(0.871352 -0.0288259 6.21578e-19)
(0.992126 -0.0101339 -4.59364e-20)
(1.08876 0.00565819 -1.41849e-19)
(1.16446 0.0201727 -2.5978e-19)
(1.21241 0.021674 -3.28853e-19)
(0.0765749 -0.0321219 4.2274e-19)
(0.248538 -0.0670685 2.03718e-20)
(0.433026 -0.0648342 3.75158e-19)
(0.609035 -0.0550684 1.15722e-19)
(0.771962 -0.0350968 9.74698e-19)
(0.913404 -0.0145441 -6.4637e-19)
(1.03098 0.00542479 1.62469e-19)
(1.12241 0.0210958 1.12814e-19)
(1.1912 0.0347408 -4.70161e-19)
(1.23341 0.0340013 4.01749e-19)
(0.086829 -0.0333614 -5.64942e-19)
(0.272437 -0.0659768 -1.63557e-19)
(0.46648 -0.0592737 4.25261e-19)
(0.648245 -0.0452561 -1.01155e-19)
(0.813202 -0.0217587 -7.16834e-19)
(0.953317 0.000977346 6.91851e-19)
(1.06678 0.0217808 2.05915e-19)
(1.15238 0.0369421 2.58084e-19)
(1.21399 0.049191 2.99753e-19)
(1.25039 0.0466397 -3.88857e-19)
(0.097656 -0.0340789 -4.6849e-19)
(0.297061 -0.063667 1.04351e-19)
(0.500236 -0.0521413 -5.70294e-19)
(0.68699 -0.0337828 1.39029e-19)
(0.853007 -0.00694392 -5.91882e-19)
(0.990824 0.0176109 -7.62438e-19)
(1.09939 0.038774 -5.61877e-19)
(1.17866 0.053024 -7.61795e-20)
(1.23304 0.0634273 -3.33519e-19)
(1.26368 0.0592348 2.4167e-19)
(0.109004 -0.0342076 1.5536e-18)
(0.322263 -0.0600456 5.25968e-19)
(0.534063 -0.0433825 3.09499e-19)
(0.724984 -0.0206609 -6.52973e-19)
(0.891088 0.00926089 5.17288e-19)
(1.0257 0.0352138 3.36589e-19)
(1.12868 0.0562418 1.87561e-19)
(1.2013 0.0691785 -2.85387e-19)
(1.24856 0.0773618 -6.20839e-20)
(1.27365 0.0715446 -2.46496e-19)
(0.120813 -0.0336846 -9.73132e-19)
(0.347879 -0.0550335 -8.98561e-19)
(0.567719 -0.0329643 -4.69439e-19)
(0.761942 -0.00592809 2.97744e-19)
(0.927179 0.0267475 2.73024e-20)
(1.05776 0.0536316 -5.86048e-19)
(1.15463 0.0740231 2.19923e-20)
(1.2204 0.0852573 5.9488e-19)
(1.26079 0.0909179 4.32411e-19)
(1.28063 0.0834146 3.34622e-19)
(0.13301 -0.032453 -2.18523e-19)
(0.373731 -0.0485673 3.88639e-20)
(0.600955 -0.0208774 9.50642e-19)
(0.79759 0.0103532 -1.32382e-20)
(0.96104 0.0453887 1.08383e-19)
(1.08685 0.0727028 6.50141e-19)
(1.17721 0.0919623 -4.65515e-20)
(1.23611 0.101129 -2.73452e-19)
(1.26997 0.104032 -3.56523e-19)
(1.28496 0.0947543 -1.82645e-20)
(0.145518 -0.0304623 3.09183e-19)
(0.399631 -0.0406011 5.10966e-19)
(0.633517 -0.00713625 -8.91205e-19)
(0.831661 0.0280967 4.56403e-19)
(0.992463 0.0650415 -4.54844e-20)
(1.11289 0.0922624 -1.32927e-19)
(1.19648 0.109912 3.8266e-19)
(1.24859 0.116682 -2.4876e-19)
(1.27636 0.116653 1.11727e-19)
(1.28695 0.105517 1.69456e-19)
(0.158248 -0.0276695 2.43662e-19)
(0.425379 -0.0311085 1.01455e-19)
(0.665151 0.00822045 3.30041e-19)
(0.863909 0.0471941 -4.24659e-19)
(1.02127 0.0855504 -1.79692e-19)
(1.13581 0.112145 -1.85796e-19)
(1.2125 0.127735 -2.19222e-19)
(1.25803 0.13182 4.76432e-19)
(1.28021 0.128742 -8.55894e-20)
(1.28689 0.115687 -1.96718e-19)
(0.171105 -0.0240408 -3.02627e-19)
(0.450769 -0.0200831 1.65009e-20)
(0.69561 0.0251298 -1.38338e-19)
(0.894104 0.0675171 1.08567e-19)
(1.04732 0.106751 5.11198e-19)
(1.15559 0.13219 2.98542e-19)
(1.22539 0.145305 -1.23156e-19)
(1.26464 0.146465 -1.08038e-19)
(1.28176 0.140272 2.16274e-19)
(1.28504 0.125265 4.0738e-20)
(0.183988 -0.0195518 -2.51155e-19)
(0.475593 -0.00753943 2.04434e-19)
(0.72465 0.0435057 -2.23115e-19)
(0.922041 0.0889201 6.80977e-20)
(1.07049 0.128471 -1.59962e-19)
(1.17224 0.15224 -2.13157e-20)
(1.23526 0.162511 1.06322e-19)
(1.26863 0.160552 -1.11807e-19)
(1.28124 0.151223 -2.91174e-21)
(1.28162 0.134265 2.73269e-20)
(0.196787 -0.0141885 3.8989e-19)
(0.499637 0.0064863 -3.17958e-19)
(0.752043 0.0632397 6.57224e-20)
(0.94754 0.111242 1.50069e-20)
(1.09072 0.150539 -3.63887e-20)
(1.18581 0.172146 1.98778e-20)
(1.24227 0.179249 -1.30353e-21)
(1.27019 0.17403 4.65014e-20)
(1.27886 0.161584 -4.37679e-20)
(1.27684 0.142704 -1.65402e-20)
(0.209393 -0.00794854 1.44598e-19)
(0.522694 0.0219364 1.27325e-19)
(0.777572 0.0842032 1.43591e-19)
(0.970447 0.134312 -2.13137e-19)
(1.10796 0.172778 -1.90466e-19)
(1.19637 0.191768 2.01347e-20)
(1.24656 0.195432 -1.20857e-19)
(1.26954 0.186858 -5.47832e-20)
(1.27483 0.171348 1.1219e-20)
(1.27086 0.150601 -1.23792e-21)
(0.221691 -0.000841296 -1.33026e-19)
(0.544558 0.0387318 7.89604e-20)
(0.801041 0.106248 7.214e-20)
(0.990638 0.157946 1.68685e-19)
(1.12219 0.195018 5.55469e-20)
(1.20401 0.210974 -9.89932e-20)
(1.24832 0.210981 -7.03815e-21)
(1.26687 0.199004 -6.92589e-22)
(1.26932 0.180512 -2.726e-20)
(1.26384 0.157974 1.74161e-22)
(0.233569 0.00711133 8.02168e-21)
(0.565036 0.056773 -1.35965e-19)
(0.822273 0.129211 -1.06549e-19)
(1.00802 0.181957 -4.80982e-20)
(1.13343 0.217089 -2.15926e-20)
(1.20883 0.229644 8.55695e-21)
(1.24771 0.225828 1.39496e-20)
(1.26237 0.210442 2.46733e-20)
(1.26251 0.189075 4.7933e-21)
(1.25591 0.164838 1.30916e-21)
(0.244903 0.0158756 6.41608e-21)
(0.583933 0.0759413 -1.08339e-20)
(0.84111 0.152914 4.79769e-20)
(1.02251 0.206154 3.43399e-20)
(1.14171 0.238828 1.3646e-20)
(1.21098 0.247667 -6.308e-21)
(1.2449 0.239914 -1.50918e-20)
(1.2562 0.221152 3.14909e-22)
(1.25453 0.197036 5.36515e-21)
(1.24717 0.171203 -3.33691e-21)
(0.255532 0.0254037 7.44645e-21)
(0.601051 0.0960974 -8.56784e-21)
(0.857406 0.177166 4.18876e-20)
(1.03408 0.230341 3.35161e-20)
(1.1471 0.260081 7.50412e-21)
(1.21057 0.264939 -4.75121e-21)
(1.24005 0.253187 -1.37376e-20)
(1.24855 0.231117 3.19113e-21)
(1.24553 0.204394 2.64104e-21)
(1.23774 0.177078 -1.51999e-21)
(0.265337 0.0356289 1.13539e-20)
(0.616224 0.117074 -1.23916e-19)
(0.871049 0.201758 -8.01762e-20)
(1.04271 0.25432 -4.89149e-20)
(1.14967 0.280694 -2.61816e-20)
(1.20775 0.281368 8.83481e-21)
(1.23334 0.265602 1.24828e-20)
(1.23955 0.240321 1.2863e-20)
(1.23563 0.211146 -4.70063e-22)
(1.22769 0.182463 2.61747e-21)
(0.274264 0.0464787 -9.74772e-20)
(0.629344 0.138703 7.75669e-20)
(0.881981 0.226487 5.18733e-20)
(1.04841 0.277903 1.27662e-19)
(1.14953 0.30053 3.44142e-20)
(1.20267 0.296871 -6.13521e-20)
(1.22491 0.277121 -4.47053e-21)
(1.22935 0.248753 -5.83586e-21)
(1.22492 0.217291 -8.20002e-21)
(1.2171 0.187358 3.67416e-22)
(0.282221 0.0578709 9.34437e-20)
(0.640297 0.160801 1.12596e-19)
(0.89015 0.251143 1.02642e-19)
(1.05123 0.300906 -1.522e-19)
(1.14678 0.319457 -9.12144e-20)
(1.19549 0.311372 -5.43216e-21)
(1.21493 0.287709 -3.68588e-20)
(1.21807 0.256401 -2.08473e-20)
(1.21351 0.222824 4.99521e-21)
(1.20603 0.191758 3.44892e-22)
(0.289114 0.0697122 2.68009e-19)
(0.648982 0.183178 -2.61316e-19)
(0.895527 0.275516 5.60552e-20)
(1.05123 0.323149 1.33948e-20)
(1.14156 0.337356 4.05818e-21)
(1.18635 0.324806 6.79823e-21)
(1.20354 0.297337 1.12715e-20)
(1.20585 0.263255 1.1569e-20)
(1.20149 0.227743 1.81159e-21)
(1.19455 0.195656 2.94677e-21)
(0.294861 0.0818997 -2.00982e-19)
(0.655319 0.205634 1.48172e-19)
(0.898109 0.299396 -1.58108e-19)
(1.04847 0.344461 6.42302e-20)
(1.13401 0.354114 -5.77131e-20)
(1.17542 0.337111 1.96238e-21)
(1.19087 0.305979 2.38002e-20)
(1.19277 0.269301 -1.8532e-21)
(1.18893 0.232039 7.16238e-21)
(1.18271 0.199044 -6.57217e-21)
(0.299393 0.0943221 -1.40929e-19)
(0.659256 0.227961 -2.11575e-20)
(0.897919 0.322574 -5.75174e-20)
(1.04308 0.364679 3.53635e-20)
(1.12425 0.369628 1.92164e-19)
(1.16283 0.348234 6.14922e-20)
(1.17707 0.313611 -1.74565e-21)
(1.17895 0.274531 1.53405e-20)
(1.17589 0.235702 -3.99503e-20)
(1.17058 0.20191 -5.95303e-21)
(0.30265 0.106861 1.62944e-19)
(0.660763 0.249949 2.51915e-20)
(0.895002 0.344847 1.89116e-19)
(1.03514 0.383648 -1.82972e-19)
(1.11245 0.383804 -4.53888e-20)
(1.14875 0.358128 -4.0325e-20)
(1.16225 0.320214 1.24971e-20)
(1.16448 0.278936 -5.05411e-20)
(1.16244 0.238724 1.89821e-20)
(1.15819 0.204241 8.66238e-20)
(0.304589 0.119392 1.17208e-19)
(0.659832 0.271388 2.10623e-19)
(0.889428 0.366019 -3.16727e-19)
(1.02481 0.401224 1.47406e-19)
(1.09876 0.396559 -2.18467e-20)
(1.13332 0.366751 7.19248e-22)
(1.14655 0.325768 -4.12965e-21)
(1.14945 0.282506 2.60618e-20)
(1.14864 0.241096 -2.90845e-20)
(1.14559 0.206021 -8.25701e-20)
(0.305179 0.131786 -1.02167e-19)
(0.656481 0.292067 -2.48577e-20)
(0.881287 0.3859 3.19843e-19)
(1.01221 0.417274 -4.69893e-21)
(1.08334 0.407815 7.92568e-21)
(1.11668 0.374068 -1.92205e-20)
(1.13006 0.330259 6.18195e-23)
(1.13393 0.285233 9.97094e-20)
(1.13454 0.242809 1.33954e-19)
(1.13281 0.207235 4.68889e-22)
(0.304403 0.143911 -3.04882e-19)
(0.650751 0.311778 -3.1257e-19)
(0.87069 0.40431 -1.20952e-19)
(0.997503 0.431674 2.21465e-20)
(1.06635 0.417507 -2.78473e-21)
(1.09898 0.380048 2.64814e-20)
(1.11291 0.333673 4.22068e-21)
(1.11802 0.287108 -1.85428e-19)
(1.1202 0.243853 -1.80018e-20)
(1.11992 0.207867 -2.23602e-19)
(0.302261 0.155635 4.13495e-19)
(0.642705 0.33032 1.54984e-19)
(0.857764 0.421082 5.32106e-20)
(0.980851 0.444315 -6.50884e-20)
(1.04795 0.425577 -4.8957e-20)
(1.08036 0.384665 -5.06237e-20)
(1.0952 0.336 -5.44988e-20)
(1.10177 0.288125 -1.19156e-19)
(1.10566 0.244221 4.16264e-20)
(1.10693 0.2079 1.35028e-19)
(0.298766 0.166825 -1.47537e-19)
(0.632431 0.347501 1.69067e-20)
(0.842654 0.436058 -6.01772e-20)
(0.962427 0.455096 1.24777e-20)
(1.02831 0.431976 2.9785e-20)
(1.06095 0.3879 1.98762e-19)
(1.07703 0.337231 1.28173e-19)
(1.08527 0.288278 1.52135e-20)
(1.09096 0.243906 1.42663e-19)
(1.09388 0.207318 -1.627e-19)
(0.293947 0.177351 -7.97463e-20)
(0.620034 0.363136 -2.08359e-20)
(0.825522 0.449096 2.37923e-20)
(0.942409 0.463931 2.11613e-20)
(1.0076 0.436664 1.6458e-19)
(1.04089 0.389736 -2.07795e-19)
(1.0585 0.337362 -1.00029e-19)
(1.06858 0.287566 -1.0781e-19)
(1.07614 0.242903 -1.75643e-19)
(1.08081 0.206105 2.46278e-19)
(0.287847 0.187083 1.99223e-20)
(0.605639 0.377053 -1.68962e-20)
(0.806543 0.46007 -3.65993e-20)
(0.920982 0.470746 -2.12157e-20)
(0.98597 0.439607 -2.13008e-19)
(1.02031 0.390164 1.47417e-19)
(1.03972 0.336389 -6.29253e-20)
(1.05177 0.285986 -7.25008e-20)
(1.06124 0.24121 2.52256e-19)
(1.06774 0.204244 -2.5828e-19)
(0.280524 0.195902 -7.77486e-20)
(0.589392 0.389092 -1.10503e-20)
(0.785901 0.468863 -9.33086e-21)
(0.898334 0.475479 -7.99737e-20)
(0.963593 0.440784 1.1564e-19)
(0.999338 0.389177 -2.13827e-19)
(1.02077 0.334312 -7.65604e-20)
(1.03491 0.283544 1.47501e-19)
(1.0463 0.238828 1.87042e-19)
(1.05469 0.20172 3.01992e-19)
(0.272053 0.203693 4.10858e-20)
(0.571453 0.399108 8.07361e-20)
(0.763793 0.475379 5.49419e-20)
(0.874658 0.478081 3.83003e-19)
(0.940629 0.440177 7.06115e-20)
(0.978101 0.386775 3.35954e-20)
(1.00175 0.331136 1.82432e-19)
(1.01806 0.280242 2.63177e-19)
(1.03135 0.23576 -6.90921e-19)
(1.04169 0.198515 -1.13651e-19)
(0.262519 0.210351 2.01762e-19)
(0.551999 0.406975 -1.63493e-19)
(0.740424 0.479537 8.90834e-20)
(0.850145 0.478515 -1.61086e-19)
(0.917238 0.43778 3.89303e-19)
(0.956721 0.382961 -2.56471e-20)
(0.982756 0.326865 -3.58787e-20)
(1.00131 0.276091 -1.4766e-19)
(1.01642 0.232008 4.5766e-19)
(1.02872 0.194613 -2.16685e-19)
(0.252025 0.215781 -3.09908e-19)
(0.531221 0.412582 1.0855e-19)
(0.716004 0.481271 -1.72527e-19)
(0.824992 0.476758 -2.79338e-20)
(0.893577 0.433595 -5.47243e-19)
(0.935319 0.377744 -5.8951e-20)
(0.963879 0.32151 -4.82643e-19)
(0.984715 0.271103 6.3374e-20)
(1.00156 0.227581 3.02771e-19)
(1.01582 0.18998 2.47766e-19)
(0.240667 0.219886 5.56644e-20)
(0.509315 0.415834 8.28328e-20)
(0.690746 0.480532 3.15382e-19)
(0.799391 0.472798 3.44272e-20)
(0.869801 0.427629 1.82275e-19)
(0.914013 0.371137 3.31373e-19)
(0.94521 0.315083 5.58345e-19)
(0.968356 0.265297 1.99769e-19)
(0.98686 0.222531 -6.74227e-19)
(1.00305 0.184702 1.46927e-19)
(0.228509 0.222535 -1.48252e-19)
(0.486467 0.41663 -2.73067e-20)
(0.664863 0.47728 -1.63133e-21)
(0.773532 0.466634 1.93591e-19)
(0.846059 0.419899 -2.15556e-19)
(0.892915 0.363159 2.23195e-19)
(0.926836 0.307599 -1.89694e-19)
(0.95232 0.258683 -2.08418e-19)
(0.972565 0.216953 9.0815e-19)
(0.990316 0.179478 3.958e-19)
(0.21569 0.223658 2.02979e-20)
(0.462907 0.414904 1.98462e-19)
(0.638576 0.471497 -5.06517e-19)
(0.747607 0.45828 -6.66801e-19)
(0.8225 0.410431 9.01387e-20)
(0.872136 0.353834 -4.72793e-19)
(0.908839 0.299072 1.69674e-19)
(0.936702 0.251238 -1.16704e-19)
(0.958893 0.210711 -3.03295e-19)
(0.978699 0.174525 -8.88148e-19)
(0.202403 0.223265 6.5109e-19)
(0.438887 0.410654 -4.49187e-19)
(0.612122 0.463201 2.91382e-19)
(0.721807 0.447766 3.76518e-19)
(0.799267 0.399259 1.60321e-19)
(0.851781 0.343189 6.06857e-19)
(0.891295 0.28952 1.68122e-19)
(0.92154 0.242973 2.22237e-19)
(0.945699 0.203731 -6.03633e-19)
(0.967204 0.169113 9.49355e-20)
(0.188795 0.221333 -4.477e-19)
(0.414636 0.403875 1.29403e-19)
(0.585718 0.452417 -3.11985e-19)
(0.696315 0.435132 -7.80343e-20)
(0.776497 0.386423 -1.44487e-21)
(0.831951 0.331259 7.57176e-20)
(0.874278 0.278971 -3.37258e-19)
(0.906879 0.233911 -4.90569e-19)
(0.932983 0.196066 3.11011e-19)
(0.955999 0.163058 2.5416e-19)
(0.175007 0.217839 -2.19863e-19)
(0.390377 0.394576 -1.34636e-19)
(0.559581 0.439183 -5.66136e-19)
(0.671307 0.420428 1.73396e-19)
(0.754325 0.371971 5.29029e-19)
(0.812745 0.318082 -6.82742e-19)
(0.857857 0.267452 -5.98766e-19)
(0.892771 0.224077 2.41822e-19)
(0.920784 0.187765 5.5161e-19)
(0.945204 0.156407 8.16022e-20)
(0.161182 0.212779 -4.62544e-19)
(0.366335 0.382785 1.88352e-21)
(0.53392 0.423554 2.92793e-19)
(0.646956 0.403717 -3.49924e-19)
(0.732877 0.35596 -8.33791e-19)
(0.794255 0.303703 -6.31155e-20)
(0.842102 0.254998 9.20229e-19)
(0.879269 0.213495 -4.31125e-19)
(0.909138 0.178855 -5.63841e-19)
(0.934879 0.149209 -1.35739e-19)
(0.147465 0.206164 2.91783e-19)
(0.34273 0.368556 5.86772e-19)
(0.508941 0.405603 4.24194e-19)
(0.623426 0.385072 3.69768e-19)
(0.712275 0.338452 1.70381e-19)
(0.77657 0.288171 8.89261e-19)
(0.82708 0.241647 -3.73307e-19)
(0.866423 0.202194 3.05349e-19)
(0.898083 0.169356 5.47521e-19)
(0.925076 0.141481 1.31714e-19)
(0.134001 0.198023 -5.35309e-19)
(0.31978 0.351958 1.91622e-19)
(0.48484 0.385417 -6.36394e-19)
(0.600874 0.364576 1.73687e-19)
(0.692636 0.319516 -7.65652e-19)
(0.759776 0.271541 -1.01285e-18)
(0.812854 0.22744 4.9666e-19)
(0.854283 0.190205 -4.39979e-20)
(0.887656 0.159291 -4.7348e-19)
(0.915835 0.133241 -3.19347e-19)
(0.120934 0.188397 7.21006e-19)
(0.297693 0.333082 -1.0024e-18)
(0.461807 0.363096 3.51235e-19)
(0.579449 0.342323 -7.45111e-19)
(0.674067 0.299229 5.93774e-19)
(0.743953 0.253873 4.65178e-19)
(0.799482 0.212421 -4.21531e-19)
(0.842893 0.177564 -4.84795e-19)
(0.877893 0.148688 3.37111e-19)
(0.907193 0.12451 2.53258e-19)
(0.108401 0.177344 -8.49588e-20)
(0.276671 0.312035 5.78658e-19)
(0.440021 0.338758 -6.29895e-19)
(0.559292 0.318416 4.47858e-19)
(0.656672 0.277674 -3.64073e-20)
(0.729175 0.235229 3.10272e-20)
(0.787022 0.196641 3.69467e-20)
(0.832299 0.164307 1.04146e-18)
(0.868826 0.137576 -1.66556e-19)
(0.89918 0.115318 -3.77631e-20)
(0.0965354 0.164935 2.9134e-19)
(0.256904 0.288943 5.54847e-21)
(0.419649 0.312529 3.25551e-19)
(0.540533 0.292966 1.73175e-20)
(0.640546 0.25494 1.60648e-19)
(0.715512 0.215679 -3.38833e-19)
(0.775524 0.180152 -3.94712e-20)
(0.822538 0.150476 -5.74818e-19)
(0.860486 0.125988 -2.57443e-19)
(0.891821 0.105695 2.61316e-19)
(0.0854633 0.151253 -1.97806e-19)
(0.23857 0.263947 -7.34319e-19)
(0.400847 0.284552 5.59744e-19)
(0.523294 0.266096 6.57381e-19)
(0.625776 0.231121 -6.91512e-20)
(0.703028 0.195295 -2.2238e-19)
(0.765037 0.163009 7.03425e-19)
(0.813648 0.136116 -5.1345e-19)
(0.8529 0.11396 2.32482e-19)
(0.88514 0.0956749 -3.74098e-19)
(0.0753022 0.136397 3.8215e-19)
(0.221834 0.237205 -3.60657e-19)
(0.38376 0.254978 -7.73722e-19)
(0.507684 0.237932 5.61945e-20)
(0.612441 0.206317 3.92719e-19)
(0.69178 0.174153 5.91444e-19)
(0.755603 0.145272 -7.4376e-19)
(0.805661 0.121274 3.88481e-19)
(0.846092 0.101531 -2.9335e-19)
(0.879155 0.0852932 -1.48719e-19)
(0.0661603 0.120475 2.22556e-19)
(0.206847 0.208888 -3.9244e-20)
(0.368516 0.22397 7.63034e-19)
(0.493803 0.20861 -2.46165e-19)
(0.600613 0.180631 2.44486e-19)
(0.681822 0.152334 4.36384e-20)
(0.747262 0.127004 -2.90814e-19)
(0.798607 0.106 1.40527e-19)
(0.840087 0.088742 5.56108e-19)
(0.873883 0.0745885 5.30627e-19)
(0.0581349 0.103606 -1.06543e-18)
(0.193742 0.179178 -2.19206e-19)
(0.355231 0.1917 -8.38683e-19)
(0.481739 0.178271 -2.41621e-19)
(0.590356 0.154173 -2.61617e-19)
(0.6732 0.129921 -5.47638e-19)
(0.740047 0.108269 1.85134e-19)
(0.792512 0.0903469 4.39052e-19)
(0.834902 0.0756364 4.74773e-21)
(0.869337 0.0636005 -3.781e-19)
(0.0513114 0.0859183 5.54111e-19)
(0.182638 0.14827 -1.07852e-20)
(0.344004 0.158347 1.24197e-19)
(0.471567 0.147062 2.90114e-20)
(0.581725 0.127054 -3.41965e-19)
(0.665953 0.107001 5.02786e-19)
(0.73399 0.0891356 4.61502e-19)
(0.787399 0.0743694 -2.44446e-19)
(0.830556 0.0622597 -1.21376e-19)
(0.865531 0.0523706 1.85026e-19)
(0.0457627 0.0675489 -1.36354e-19)
(0.173633 0.116369 2.16548e-19)
(0.33492 0.124099 2.32398e-19)
(0.463353 0.115135 -4.03538e-19)
(0.574764 0.0993903 2.19609e-20)
(0.660116 0.0836616 -1.02861e-20)
(0.729113 0.0696727 -2.55912e-19)
(0.783285 0.0581238 1.56694e-20)
(0.827061 0.0486591 4.67855e-20)
(0.862474 0.0409413 -1.90844e-19)
(0.0415481 0.0486411 1.42507e-19)
(0.166808 0.0836863 -1.43541e-19)
(0.328047 0.0891491 -1.22068e-19)
(0.457147 0.0826447 3.29086e-19)
(0.569511 0.0713 8.98463e-20)
(0.655713 0.0599942 -2.20388e-19)
(0.725439 0.0499519 -1.68248e-20)
(0.780186 0.0416682 -1.77698e-19)
(0.82443 0.0348829 -1.16167e-19)
(0.860174 0.0293558 1.84157e-20)
(0.0387128 0.0293436 1.26186e-20)
(0.162223 0.05044 3.85887e-20)
(0.323437 0.0536932 7.10953e-20)
(0.452987 0.0497498 -1.0802e-19)
(0.565993 0.0429034 -5.627e-20)
(0.652768 0.0360914 3.06516e-20)
(0.72298 0.0300457 -6.45579e-20)
(0.778114 0.0250616 7.07216e-20)
(0.822671 0.0209803 2.73085e-20)
(0.858637 0.0176583 1.05461e-20)
(0.0372874 0.0098084 1.0802e-20)
(0.159921 0.0168522 1.49861e-20)
(0.321123 0.0179322 -8.62144e-20)
(0.450901 0.0166109 6.53681e-20)
(0.56423 0.014322 3.04857e-20)
(0.651291 0.0120465 -1.96401e-20)
(0.721749 0.0100277 5.98368e-20)
(0.777077 0.00836398 7.01415e-21)
(0.821791 0.00700184 2.56785e-20)
(0.857868 0.00589346 -2.31334e-20)
(0.0372874 -0.0098084 1.34455e-20)
(0.159921 -0.0168522 -1.49861e-20)
(0.321123 -0.0179322 8.62144e-20)
(0.450901 -0.0166109 6.98832e-20)
(0.56423 -0.014322 1.9081e-20)
(0.651291 -0.0120465 -1.09534e-20)
(0.721749 -0.0100277 5.79696e-20)
(0.777077 -0.00836398 8.64801e-21)
(0.821791 -0.00700183 1.80722e-20)
(0.857868 -0.00589346 -1.43266e-20)
(0.0387128 -0.0293436 2.16922e-20)
(0.162223 -0.05044 4.85855e-20)
(0.323437 -0.0536932 7.09619e-20)
(0.452987 -0.0497498 -1.06178e-19)
(0.565993 -0.0429034 -4.80073e-20)
(0.652768 -0.0360914 1.81218e-20)
(0.72298 -0.0300457 -6.12325e-20)
(0.778114 -0.0250616 7.73136e-20)
(0.822671 -0.0209803 1.12548e-21)
(0.858637 -0.0176583 2.62066e-20)
(0.0415481 -0.0486411 1.4478e-19)
(0.166808 -0.0836863 -1.24419e-19)
(0.328047 -0.0891491 -1.37803e-19)
(0.457147 -0.0826447 3.14054e-19)
(0.569511 -0.0713 1.00642e-19)
(0.655713 -0.0599942 -2.29569e-19)
(0.725439 -0.0499519 -2.44844e-20)
(0.780186 -0.0416682 -1.92818e-19)
(0.82443 -0.0348829 -8.42276e-20)
(0.860174 -0.0293558 -2.14778e-20)
(0.0457627 -0.0675489 -1.41157e-19)
(0.173633 -0.116369 2.0704e-19)
(0.33492 -0.124099 2.3566e-19)
(0.463353 -0.115135 -3.60364e-19)
(0.574764 -0.0993903 -2.65996e-20)
(0.660116 -0.0836616 1.59177e-20)
(0.729113 -0.0696727 -2.6961e-19)
(0.783285 -0.0581238 -2.08662e-20)
(0.827061 -0.0486591 3.69746e-20)
(0.862474 -0.0409413 -1.99146e-19)
(0.0513114 -0.0859183 5.97157e-19)
(0.182638 -0.14827 1.85962e-20)
(0.344004 -0.158347 1.20134e-19)
(0.471567 -0.147062 2.98041e-20)
(0.581725 -0.127054 -3.80654e-19)
(0.665953 -0.107001 5.82637e-19)
(0.73399 -0.0891356 3.87e-19)
(0.787399 -0.0743694 -1.75707e-19)
(0.830556 -0.0622597 -1.28882e-19)
(0.865531 -0.0523706 1.35391e-19)
(0.0581349 -0.103606 -1.0282e-18)
(0.193742 -0.179178 -1.98334e-19)
(0.355231 -0.1917 -8.47909e-19)
(0.481739 -0.178271 -1.81763e-19)
(0.590356 -0.154173 -2.87194e-19)
(0.6732 -0.129921 -5.47687e-19)
(0.740047 -0.108269 1.95472e-19)
(0.792512 -0.0903469 4.61085e-19)
(0.834902 -0.0756364 -5.14905e-20)
(0.869337 -0.0636005 -2.77979e-19)
(0.0661603 -0.120475 3.18874e-19)
(0.206847 -0.208888 9.97062e-21)
(0.368516 -0.22397 7.4695e-19)
(0.493803 -0.20861 -2.19202e-19)
(0.600613 -0.180631 2.61066e-19)
(0.681822 -0.152334 -3.96076e-20)
(0.747262 -0.127004 -1.31801e-19)
(0.798607 -0.106 -1.85047e-20)
(0.840087 -0.088742 6.11238e-19)
(0.873883 -0.0745885 4.40389e-19)
(0.0753022 -0.136397 3.56395e-19)
(0.221834 -0.237205 5.90813e-19)
(0.38376 -0.254978 -7.6502e-19)
(0.507684 -0.237932 1.8261e-20)
(0.612441 -0.206317 3.35128e-19)
(0.69178 -0.174153 6.98971e-19)
(0.755603 -0.145272 -8.72344e-19)
(0.805661 -0.121274 4.05149e-19)
(0.846092 -0.101531 -3.01945e-19)
(0.879155 -0.0852932 -4.10644e-20)
(0.0854633 -0.151253 -2.24624e-19)
(0.23857 -0.263947 1.28644e-19)
(0.400847 -0.284552 5.51177e-19)
(0.523294 -0.266096 6.67317e-19)
(0.625776 -0.231121 -1.70468e-19)
(0.703028 -0.195295 -1.69655e-19)