/*--------------------------------*- C++ -*----------------------------------*\
  =========                 |
  \\      /  F ield         | OpenFOAM: The Open Source CFD Toolbox
   \\    /   O peration     | Website:  https://openfoam.org
    \\  /    A nd           | Version:  7
     \\/     M anipulation  |
\*---------------------------------------------------------------------------*/
FoamFile
{
    version     2.0;
    format      ascii;
    class       volScalarField;
    location    "10";
    object      p;
}
// * * * * * * * * * * * * * * * * * * * * * * * * * * * * * * * * * * * * * //

dimensions      [0 2 -2 0 0 0 0];

internalField   nonuniform List<scalar> 
2625
(
-0.0928151
-0.0917271
-0.0905924
-0.0894137
-0.0881941
-0.0869362
-0.0856429
-0.0843168
-0.0829605
-0.0815764
-0.0801669
-0.0787342
-0.0772802
-0.0758069
-0.074316
-0.0728091
-0.0712876
-0.0697528
-0.0682059
-0.0666479
-0.0650799
-0.0635025
-0.0619166
-0.0603228
-0.0587218
-0.057114
-0.0555
-0.0538803
-0.0522554
-0.0506257
-0.0489918
-0.0473543
-0.0457138
-0.044071
-0.0424266
-0.100767
-0.100651
-0.100511
-0.100287
-0.0999593
-0.0995413
-0.0990379
-0.0984559
-0.0978007
-0.0970767
-0.0962878
-0.095437
-0.0945276
-0.0935622
-0.0925439
-0.0914753
-0.0903594
-0.0891989
-0.0879967
-0.0867556
-0.0854782
-0.0841673
-0.0828253
-0.0814547
-0.0800578
-0.0786368
-0.0771938
-0.0757305
-0.0742489
-0.0727504
-0.0712366
-0.0697088
-0.0681682
-0.0666159
-0.0650528
-0.0634799
-0.0618979
-0.0603076
-0.0587095
-0.0571043
-0.0554926
-0.0538747
-0.0522514
-0.0506231
-0.0489904
-0.0473539
-0.0457142
-0.0440721
-0.0424285
-0.100338
-0.100152
-0.100021
-0.0998024
-0.0994875
-0.0990869
-0.0986032
-0.0980419
-0.0974079
-0.0967052
-0.0959374
-0.0951075
-0.0942185
-0.0932733
-0.0922746
-0.0912251
-0.0901278
-0.0889852
-0.0878003
-0.0865757
-0.0853141
-0.0840181
-0.0826903
-0.0813331
-0.0799487
-0.0785393
-0.0771071
-0.0756539
-0.0741814
-0.0726914
-0.0711853
-0.0696644
-0.0681301
-0.0665834
-0.0650254
-0.0634569
-0.0618788
-0.0602919
-0.0586969
-0.0570943
-0.0554847
-0.0538688
-0.0522472
-0.0506202
-0.0489887
-0.0473532
-0.0457144
-0.044073
-0.0424301
-0.0999026
-0.0996617
-0.0995389
-0.0993263
-0.0990239
-0.0986397
-0.0981747
-0.0976334
-0.0970199
-0.0963378
-0.0955906
-0.0947811
-0.0939122
-0.0929867
-0.0920073
-0.0909767
-0.0898976
-0.0887728
-0.0876049
-0.0863966
-0.0851506
-0.0838694
-0.0825556
-0.0812116
-0.0798396
-0.0784418
-0.0770203
-0.075577
-0.0741137
-0.0726321
-0.0711336
-0.0696197
-0.0680916
-0.0665505
-0.0649975
-0.0634335
-0.0618594
-0.0602759
-0.0586839
-0.0570839
-0.0554766
-0.0538626
-0.0522426
-0.0506171
-0.0489867
-0.0473522
-0.0457142
-0.0440737
-0.0424314
-0.0994626
-0.0991781
-0.0990641
-0.0988585
-0.0985681
-0.0981997
-0.0977525
-0.0972304
-0.0966367
-0.0959747
-0.0952476
-0.094458
-0.0936089
-0.0927028
-0.0917423
-0.0907303
-0.0896692
-0.0885617
-0.0874106
-0.0862184
-0.0849878
-0.0837213
-0.0824214
-0.0810904
-0.0797306
-0.0783443
-0.0769335
-0.0755001
-0.0740459
-0.0725726
-0.0710817
-0.0695747
-0.0680528
-0.0665174
-0.0649694
-0.0634098
-0.0618396
-0.0602596
-0.0586705
-0.0570732
-0.0554681
-0.0538561
-0.0522377
-0.0506136
-0.0489844
-0.0473509
-0.0457138
-0.044074
-0.0424325
-0.0990187
-0.0987011
-0.0985962
-0.0983984
-0.0981199
-0.0977666
-0.0973366
-0.096833
-0.0962585
-0.0956161
-0.0949085
-0.0941385
-0.0933087
-0.0924216
-0.0914798
-0.0904859
-0.0894425
-0.0883522
-0.0872176
-0.0860413
-0.0848259
-0.0835738
-0.0822876
-0.0809695
-0.0796219
-0.078247
-0.0768467
-0.0754231
-0.0739779
-0.0725129
-0.0710296
-0.0695294
-0.0680138
-0.0664839
-0.0649409
-0.0633858
-0.0618195
-0.060243
-0.0586569
-0.0570622
-0.0554594
-0.0538493
-0.0522326
-0.0506099
-0.0489819
-0.0473494
-0.0457132
-0.0440742
-0.0424333
-0.0985718
-0.0982305
-0.0981348
-0.0979458
-0.097679
-0.0973405
-0.0969271
-0.0964414
-0.0958855
-0.0952621
-0.0945736
-0.0938227
-0.0930117
-0.0921433
-0.0912198
-0.0902438
-0.0892178
-0.0881444
-0.0870261
-0.0858654
-0.084665
-0.0834272
-0.0821544
-0.0808492
-0.0795136
-0.0781499
-0.0767601
-0.0753461
-0.0739099
-0.0724531
-0.0709773
-0.069484
-0.0679746
-0.0664502
-0.0649122
-0.0633615
-0.0617992
-0.0602261
-0.0586431
-0.0570509
-0.0554504
-0.0538423
-0.0522272
-0.0506059
-0.0489792
-0.0473477
-0.0457124
-0.0440741
-0.0424339
-0.0981229
-0.0977661
-0.0976799
-0.0975004
-0.0972455
-0.0969213
-0.096524
-0.0960556
-0.0955178
-0.0949128
-0.094243
-0.0935107
-0.0927183
-0.0918681
-0.0909626
-0.0900041
-0.0889952
-0.0879384
-0.0868361
-0.0856909
-0.0845051
-0.0832814
-0.082022
-0.0807294
-0.0794056
-0.078053
-0.0766736
-0.0752693
-0.0738419
-0.0723933
-0.0709249
-0.0694384
-0.0679352
-0.0664164
-0.0648833
-0.063337
-0.0617786
-0.060209
-0.058629
-0.0570394
-0.0554412
-0.053835
-0.0522216
-0.0506017
-0.0489762
-0.0473458
-0.0457114
-0.0440739
-0.0424343
-0.097673
-0.097308
-0.0972313
-0.097062
-0.096819
-0.096509
-0.0961274
-0.0956757
-0.0951555
-0.0945685
-0.0939169
-0.0932028
-0.0924285
-0.0915962
-0.0907082
-0.089767
-0.0887749
-0.0877344
-0.0866478
-0.0855177
-0.0843466
-0.0831367
-0.0818905
-0.0806102
-0.0792982
-0.0779566
-0.0765874
-0.0751926
-0.0737741
-0.0723335
-0.0708726
-0.0693928
-0.0678956
-0.0663824
-0.0648542
-0.0633124
-0.0617578
-0.0601916
-0.0586146
-0.0570277
-0.0554318
-0.0538275
-0.0522158
-0.0505973
-0.048973
-0.0473436
-0.0457101
-0.0440734
-0.0424345
-0.097223
-0.0968561
-0.0967891
-0.0966306
-0.0963997
-0.0961035
-0.0957372
-0.0953019
-0.0947987
-0.0942293
-0.0935954
-0.0928991
-0.0921424
-0.0913276
-0.0904569
-0.0895326
-0.088557
-0.0875324
-0.0864614
-0.0853462
-0.0841893
-0.0829931
-0.0817599
-0.0804919
-0.0791915
-0.0778607
-0.0765016
-0.0751162
-0.0737064
-0.0722738
-0.0708202
-0.0693472
-0.067856
-0.0663483
-0.064825
-0.0632876
-0.0617369
-0.0601741
-0.0586001
-0.0570158
-0.0554221
-0.0538198
-0.0522098
-0.0505928
-0.0489697
-0.0473413
-0.0457087
-0.0440728
-0.0424346
-0.0967737
-0.0964106
-0.0963532
-0.0962062
-0.0959873
-0.0957049
-0.0953536
-0.0949342
-0.0944477
-0.0938953
-0.0932786
-0.0925997
-0.0918603
-0.0910627
-0.0902088
-0.0893011
-0.0883416
-0.0873328
-0.0862769
-0.0851764
-0.0840336
-0.0828508
-0.0816303
-0.0803745
-0.0790854
-0.0777653
-0.0764163
-0.0750402
-0.0736389
-0.0722143
-0.070768
-0.0693015
-0.0678165
-0.0663141
-0.0647957
-0.0632626
-0.0617158
-0.0601565
-0.0585855
-0.0570038
-0.0554124
-0.053812
-0.0522036
-0.050588
-0.0489662
-0.0473389
-0.0457071
-0.044072
-0.0424345
-0.0963262
-0.0959715
-0.0959238
-0.0957886
-0.095582
-0.0953132
-0.0949766
-0.0945728
-0.0941024
-0.0935666
-0.0929668
-0.0923048
-0.0915823
-0.0908014
-0.0899641
-0.0890726
-0.088129
-0.0871355
-0.0860946
-0.0850085
-0.0838794
-0.0827098
-0.0815019
-0.080258
-0.0789802
-0.0776707
-0.0763315
-0.0749646
-0.0735718
-0.072155
-0.0707159
-0.069256
-0.0677769
-0.0662799
-0.0647664
-0.0632376
-0.0616947
-0.0601387
-0.0585707
-0.0569916
-0.0554024
-0.053804
-0.0521973
-0.0505832
-0.0489625
-0.0473363
-0.0457054
-0.044071
-0.0424342
-0.0958812
-0.095539
-0.095501
-0.095378
-0.0951838
-0.0949285
-0.0946063
-0.0942177
-0.0937631
-0.0932435
-0.0926601
-0.0920146
-0.0913086
-0.0905441
-0.089723
-0.0888473
-0.0879192
-0.0869408
-0.0859145
-0.0848425
-0.083727
-0.0825704
-0.0813749
-0.0801427
-0.0788759
-0.0775768
-0.0762473
-0.0748894
-0.0735051
-0.0720961
-0.070664
-0.0692107
-0.0677374
-0.0662458
-0.0647371
-0.0632126
-0.0616735
-0.0601209
-0.0585558
-0.0569793
-0.0553924
-0.0537959
-0.0521909
-0.0505782
-0.0489587
-0.0473335
-0.0457035
-0.0440699
-0.0424338
-0.0954395
-0.0951132
-0.0950851
-0.0949745
-0.0947928
-0.0945508
-0.0942427
-0.093869
-0.0934298
-0.092926
-0.0923587
-0.0917293
-0.0910394
-0.0902908
-0.0894855
-0.0886253
-0.0877124
-0.0867488
-0.0857369
-0.0846787
-0.0835765
-0.0824326
-0.0812492
-0.0800285
-0.0787727
-0.0774838
-0.0761639
-0.0748149
-0.0734389
-0.0720375
-0.0706125
-0.0691655
-0.0676981
-0.0662118
-0.0647078
-0.0631876
-0.0616522
-0.060103
-0.0585408
-0.0569669
-0.0553822
-0.0537877
-0.0521843
-0.050573
-0.0489548
-0.0473306
-0.0457016
-0.0440687
-0.0424333
-0.0950019
-0.0946945
-0.0946761
-0.0945781
-0.094409
-0.0941802
-0.0938861
-0.0935269
-0.0931028
-0.0926143
-0.0920626
-0.0914489
-0.0907747
-0.0900418
-0.0892518
-0.0884068
-0.0875087
-0.0865596
-0.0855617
-0.0845171
-0.083428
-0.0822966
-0.0811251
-0.0799157
-0.0786705
-0.0773917
-0.0760812
-0.0747411
-0.0733732
-0.0719793
-0.0705613
-0.0691206
-0.067659
-0.0661779
-0.0646786
-0.0631626
-0.061631
-0.060085
-0.0585259
-0.0569545
-0.055372
-0.0537794
-0.0521777
-0.0505678
-0.0489508
-0.0473276
-0.0456995
-0.0440674
-0.0424326
-0.0945691
-0.0942829
-0.0942744
-0.0941891
-0.0940325
-0.0938168
-0.0935365
-0.0931915
-0.092782
-0.0923086
-0.0917721
-0.0911737
-0.0905148
-0.0897971
-0.0890222
-0.088192
-0.0873084
-0.0863735
-0.0853893
-0.0843579
-0.0832816
-0.0821624
-0.0810026
-0.0798043
-0.0785696
-0.0773007
-0.0759995
-0.074668
-0.0733081
-0.0719217
-0.0705104
-0.0690761
-0.0676201
-0.0661442
-0.0646496
-0.0631377
-0.0616098
-0.0600671
-0.0585109
-0.056942
-0.0553618
-0.0537711
-0.052171
-0.0505625
-0.0489467
-0.0473246
-0.0456973
-0.044066
-0.0424319
-0.0941418
-0.0938787
-0.0938801
-0.0938075
-0.0936636
-0.0934608
-0.093194
-0.0928629
-0.0924678
-0.092009
-0.0914873
-0.0909038
-0.0902599
-0.0895569
-0.0887967
-0.087981
-0.0871115
-0.0861904
-0.0852196
-0.0842013
-0.0831374
-0.0820302
-0.0808819
-0.0796945
-0.0784701
-0.0772108
-0.0759187
-0.0745957
-0.0732438
-0.0718646
-0.0704601
-0.0690319
-0.0675816
-0.0661107
-0.0646207
-0.0631129
-0.0615887
-0.0600493
-0.0584959
-0.0569296
-0.0553515
-0.0537627
-0.0521642
-0.0505571
-0.0489425
-0.0473214
-0.045695
-0.0440645
-0.0424311
-0.0937206
-0.0934823
-0.0934935
-0.0934337
-0.0933023
-0.0931124
-0.0928587
-0.0925413
-0.0921602
-0.0917156
-0.0912083
-0.0906394
-0.09001
-0.0893215
-0.0885756
-0.0877739
-0.0869183
-0.0860106
-0.085053
-0.0840473
-0.0829957
-0.0819002
-0.080763
-0.0795863
-0.078372
-0.0771222
-0.0758391
-0.0745244
-0.0731802
-0.0718082
-0.0704103
-0.0689882
-0.0675434
-0.0660775
-0.064592
-0.0630883
-0.0615677
-0.0600315
-0.0584809
-0.0569171
-0.0553412
-0.0537543
-0.0521574
-0.0505517
-0.0489383
-0.0473182
-0.0456927
-0.0440629
-0.0424301
-0.0933062
-0.0930937
-0.0931149
-0.0930677
-0.0929488
-0.0927715
-0.0925309
-0.0922269
-0.0918594
-0.0914287
-0.0909355
-0.0903806
-0.0897653
-0.0890909
-0.0883589
-0.087571
-0.0867288
-0.0858343
-0.0848894
-0.0838961
-0.0828564
-0.0817724
-0.0806462
-0.0794798
-0.0782754
-0.077035
-0.0757606
-0.0744541
-0.0731175
-0.0717526
-0.0703611
-0.0689449
-0.0675056
-0.0660446
-0.0645636
-0.0630639
-0.0615469
-0.0600139
-0.0584661
-0.0569047
-0.0553309
-0.0537458
-0.0521506
-0.0505463
-0.048934
-0.047315
-0.0456903
-0.0440613
-0.0424292
-0.0928992
-0.0927134
-0.0927445
-0.0927098
-0.0926033
-0.0924385
-0.0922107
-0.0919197
-0.0915655
-0.0911483
-0.0906688
-0.0901277
-0.0895261
-0.0888654
-0.0881469
-0.0873723
-0.0865432
-0.0856615
-0.0847291
-0.0837478
-0.0827198
-0.081647
-0.0805315
-0.0793753
-0.0781805
-0.0769492
-0.0756833
-0.0743848
-0.0730557
-0.0716977
-0.0703126
-0.0689023
-0.0674683
-0.0660122
-0.0645355
-0.0630398
-0.0615263
-0.0599964
-0.0584513
-0.0568924
-0.0553207
-0.0537375
-0.0521438
-0.0505408
-0.0489297
-0.0473117
-0.0456879
-0.0440596
-0.0424281
-0.0925001
-0.0923416
-0.0923826
-0.0923602
-0.092266
-0.0921135
-0.0918982
-0.09162
-0.0912787
-0.0908747
-0.0904084
-0.0898807
-0.0892925
-0.088645
-0.0879397
-0.0871781
-0.0863618
-0.0854925
-0.0845722
-0.0836027
-0.082586
-0.0815241
-0.080419
-0.0792727
-0.0780874
-0.0768649
-0.0756074
-0.0743168
-0.0729949
-0.0716437
-0.0702649
-0.0688603
-0.0674315
-0.0659801
-0.0645078
-0.0630159
-0.0615058
-0.059979
-0.0584367
-0.0568801
-0.0553105
-0.0537291
-0.052137
-0.0505354
-0.0489255
-0.0473084
-0.0456854
-0.0440578
-0.042427
-0.0921095
-0.0919786
-0.0920295
-0.0920192
-0.0919372
-0.0917967
-0.0915937
-0.0913279
-0.0909993
-0.090608
-0.0901546
-0.0896398
-0.0890646
-0.08843
-0.0877375
-0.0869885
-0.0861845
-0.0853274
-0.0844188
-0.0834607
-0.0824551
-0.0814037
-0.0803088
-0.0791722
-0.0779961
-0.0767823
-0.075533
-0.07425
-0.0729353
-0.0715906
-0.0702179
-0.0688189
-0.0673953
-0.0659486
-0.0644805
-0.0629923
-0.0614857
-0.0599619
-0.0584222
-0.056868
-0.0553005
-0.0537208
-0.0521302
-0.05053
-0.0489212
-0.0473051
-0.0456829
-0.0440561
-0.0424259
-0.0917279
-0.0916246
-0.0916855
-0.091687
-0.0916169
-0.0914883
-0.0912972
-0.0910436
-0.0907272
-0.0903484
-0.0899076
-0.0894053
-0.0888426
-0.0882206
-0.0875404
-0.0868036
-0.0860116
-0.0851663
-0.0842691
-0.0833222
-0.0823272
-0.0812862
-0.0802011
-0.079074
-0.0779068
-0.0767015
-0.0754601
-0.0741845
-0.0728768
-0.0715386
-0.0701719
-0.0687783
-0.0673597
-0.0659176
-0.0644536
-0.0629692
-0.0614658
-0.059945
-0.058408
-0.056856
-0.0552905
-0.0537126
-0.0521236
-0.0505246
-0.0489169
-0.0473017
-0.0456804
-0.0440543
-0.0424247
-0.0913559
-0.09128
-0.0913508
-0.0913638
-0.0913055
-0.0911885
-0.0910091
-0.0907673
-0.0904629
-0.0900961
-0.0896674
-0.0891773
-0.0886267
-0.0880168
-0.0873486
-0.0866236
-0.0858433
-0.0850093
-0.0841233
-0.0831871
-0.0822025
-0.0811715
-0.080096
-0.078978
-0.0778195
-0.0766225
-0.0753888
-0.0741205
-0.0728195
-0.0714876
-0.0701267
-0.0687385
-0.0673248
-0.0658871
-0.0644272
-0.0629464
-0.0614463
-0.0599284
-0.0583939
-0.0568442
-0.0552807
-0.0537045
-0.0521169
-0.0505192
-0.0489126
-0.0472984
-0.0456779
-0.0440525
-0.0424235
-0.0909939
-0.0909452
-0.0910257
-0.09105
-0.0910032
-0.0908975
-0.0907295
-0.0904991
-0.0902063
-0.0898513
-0.0894342
-0.0889559
-0.0884172
-0.0878189
-0.0871623
-0.0864488
-0.0856797
-0.0848567
-0.0839814
-0.0830556
-0.0820811
-0.0810598
-0.0799937
-0.0788846
-0.0777345
-0.0765454
-0.0753193
-0.074058
-0.0727636
-0.0714379
-0.0700826
-0.0686996
-0.0672906
-0.0658573
-0.0644013
-0.0629241
-0.0614272
-0.0599121
-0.0583801
-0.0568326
-0.055271
-0.0536965
-0.0521104
-0.050514
-0.0489084
-0.0472952
-0.0456755
-0.0440507
-0.0424223
-0.0906424
-0.0906203
-0.0907106
-0.0907458
-0.0907103
-0.0906155
-0.0904586
-0.0902394
-0.0899578
-0.089614
-0.0892084
-0.0887414
-0.088214
-0.087627
-0.0869817
-0.0862792
-0.085521
-0.0847086
-0.0838437
-0.082928
-0.0819632
-0.0809513
-0.0798941
-0.0787936
-0.0776517
-0.0764704
-0.0752515
-0.0739972
-0.0727091
-0.0713893
-0.0700396
-0.0686616
-0.0672573
-0.0658282
-0.064376
-0.0629022
-0.0614084
-0.0598961
-0.0583666
-0.0568213
-0.0552615
-0.0536887
-0.052104
-0.0505088
-0.0489043
-0.0472919
-0.045673
-0.0440489
-0.0424211
-0.0903019
-0.0903058
-0.0904057
-0.0904515
-0.0904269
-0.0903428
-0.0901967
-0.0899883
-0.0897176
-0.0893847
-0.08899
-0.088534
-0.0880175
-0.0874414
-0.0868068
-0.086115
-0.0853672
-0.0845651
-0.0837102
-0.0828042
-0.0818489
-0.080846
-0.0797976
-0.0787054
-0.0775714
-0.0763975
-0.0751857
-0.073938
-0.0726561
-0.0713421
-0.0699977
-0.0686246
-0.0672248
-0.0657998
-0.0643513
-0.0628809
-0.0613901
-0.0598805
-0.0583533
-0.0568101
-0.0552522
-0.053681
-0.0520977
-0.0505037
-0.0489002
-0.0472887
-0.0456706
-0.0440471
-0.0424199
-0.0899728
-0.0900019
-0.0901113
-0.0901674
-0.0901534
-0.0900797
-0.089944
-0.089746
-0.0894857
-0.0891633
-0.0887792
-0.0883337
-0.0878278
-0.0872622
-0.086638
-0.0859564
-0.0852187
-0.0844265
-0.0835812
-0.0826846
-0.0817383
-0.0807442
-0.0797041
-0.0786199
-0.0774935
-0.0763269
-0.0751219
-0.0738806
-0.0726047
-0.0712962
-0.069957
-0.0685887
-0.0671932
-0.0657722
-0.0643273
-0.0628602
-0.0613723
-0.0598653
-0.0583404
-0.0567993
-0.0552432
-0.0536735
-0.0520915
-0.0504987
-0.0488962
-0.0472856
-0.0456682
-0.0440454
-0.0424187
-0.0896556
-0.089709
-0.0898278
-0.0898937
-0.0898899
-0.0898263
-0.0897006
-0.0895127
-0.0892625
-0.0889502
-0.0885762
-0.0881409
-0.0876451
-0.0870895
-0.0864753
-0.0858035
-0.0850755
-0.0842928
-0.0834567
-0.0825691
-0.0816315
-0.0806458
-0.0796138
-0.0785373
-0.0774183
-0.0762586
-0.0750602
-0.073825
-0.0725549
-0.0712518
-0.0699175
-0.0685539
-0.0671626
-0.0657454
-0.0643041
-0.0628401
-0.061355
-0.0598505
-0.0583279
-0.0567887
-0.0552343
-0.0536662
-0.0520855
-0.0504938
-0.0488923
-0.0472825
-0.0456658
-0.0440436
-0.0424175
-0.0893506
-0.0894274
-0.0895554
-0.0896307
-0.0896369
-0.0895829
-0.0894669
-0.0892886
-0.0890482
-0.0887456
-0.0883813
-0.0879557
-0.0874695
-0.0869236
-0.0863189
-0.0856566
-0.0849378
-0.0841642
-0.083337
-0.082458
-0.0815288
-0.0805511
-0.0795268
-0.0784577
-0.0773458
-0.0761928
-0.0750007
-0.0737715
-0.0725069
-0.071209
-0.0698795
-0.0685202
-0.067133
-0.0657196
-0.0642815
-0.0628206
-0.0613383
-0.0598362
-0.0583158
-0.0567785
-0.0552258
-0.0536591
-0.0520797
-0.0504891
-0.0488885
-0.0472796
-0.0456635
-0.044042
-0.0424163
-0.0890584
-0.0891575
-0.0892944
-0.0893788
-0.0893945
-0.0893498
-0.0892431
-0.0890741
-0.0888429
-0.0885496
-0.0881946
-0.0877783
-0.0873014
-0.0867646
-0.086169
-0.0855157
-0.0848059
-0.0840409
-0.0832222
-0.0823514
-0.0814302
-0.0804602
-0.0794433
-0.0783813
-0.0772761
-0.0761295
-0.0749435
-0.0737199
-0.0724607
-0.0711677
-0.0698428
-0.0684878
-0.0671045
-0.0656946
-0.0642598
-0.0628018
-0.0613221
-0.0598224
-0.058304
-0.0567686
-0.0552175
-0.0536522
-0.052074
-0.0504845
-0.0488849
-0.0472767
-0.0456613
-0.0440403
-0.0424152
-0.0887793
-0.0888995
-0.0890452
-0.0891381
-0.089163
-0.0891272
-0.0890293
-0.0888692
-0.0886469
-0.0883625
-0.0880163
-0.0876089
-0.0871408
-0.0866128
-0.0860259
-0.0853811
-0.0846797
-0.083923
-0.0831124
-0.0822494
-0.0813358
-0.0803732
-0.0793634
-0.0783081
-0.0772094
-0.0760689
-0.0748886
-0.0736705
-0.0724164
-0.0711282
-0.0698077
-0.0684567
-0.0670771
-0.0656706
-0.064239
-0.0627837
-0.0613066
-0.0598091
-0.0582927
-0.0567591
-0.0552095
-0.0536456
-0.0520686
-0.0504801
-0.0488813
-0.0472739
-0.0456592
-0.0440387
-0.042414
-0.0885137
-0.0886539
-0.088808
-0.0889092
-0.0889427
-0.0889154
-0.088826
-0.0886743
-0.0884604
-0.0881845
-0.0878467
-0.0874477
-0.086988
-0.0864683
-0.0858896
-0.085253
-0.0845596
-0.0838107
-0.0830077
-0.0821523
-0.0812459
-0.0802903
-0.0792872
-0.0782383
-0.0771457
-0.076011
-0.0748363
-0.0736233
-0.0723741
-0.0710904
-0.069774
-0.068427
-0.067051
-0.0656477
-0.064219
-0.0627664
-0.0612917
-0.0597963
-0.0582819
-0.0567499
-0.0552019
-0.0536392
-0.0520634
-0.0504758
-0.0488779
-0.0472712
-0.0456571
-0.0440372
-0.042413
-0.0882619
-0.088421
-0.0885833
-0.0886921
-0.0887339
-0.0887146
-0.0886333
-0.0884896
-0.0882837
-0.0880157
-0.087686
-0.0872949
-0.0868431
-0.0863313
-0.0857604
-0.0851315
-0.0844456
-0.0837042
-0.0829085
-0.0820601
-0.0811605
-0.0802115
-0.0792148
-0.078172
-0.0770852
-0.075956
-0.0747865
-0.0735785
-0.0723338
-0.0710544
-0.069742
-0.0683987
-0.067026
-0.0656259
-0.0641999
-0.0627499
-0.0612775
-0.0597842
-0.0582716
-0.0567412
-0.0551946
-0.0536332
-0.0520584
-0.0504717
-0.0488747
-0.0472686
-0.0456551
-0.0440357
-0.0424119
-0.0880245
-0.0882011
-0.0883711
-0.0884873
-0.0885369
-0.0885252
-0.0884515
-0.0883154
-0.088117
-0.0878566
-0.0875343
-0.0871507
-0.0867064
-0.086202
-0.0856384
-0.0850167
-0.084338
-0.0836036
-0.0828147
-0.0819729
-0.0810799
-0.0801371
-0.0791463
-0.0781093
-0.0770279
-0.075904
-0.0747394
-0.073536
-0.0722957
-0.0710203
-0.0697117
-0.0683718
-0.0670024
-0.0656052
-0.0641819
-0.0627343
-0.061264
-0.0597726
-0.0582618
-0.0567329
-0.0551876
-0.0536274
-0.0520536
-0.0504679
-0.0488715
-0.0472662
-0.0456532
-0.0440343
-0.0424109
-0.0878017
-0.0879945
-0.088172
-0.088295
-0.088352
-0.0883475
-0.0882808
-0.0881518
-0.0879605
-0.0877072
-0.087392
-0.0870154
-0.0865781
-0.0860806
-0.0855239
-0.084909
-0.084237
-0.083509
-0.0827266
-0.0818911
-0.081004
-0.0800671
-0.0790819
-0.0780503
-0.0769741
-0.0758551
-0.0746951
-0.073496
-0.0722598
-0.0709882
-0.0696832
-0.0683465
-0.0669801
-0.0655856
-0.0641649
-0.0627195
-0.0612513
-0.0597617
-0.0582525
-0.0567251
-0.0551811
-0.0536219
-0.0520492
-0.0504642
-0.0488686
-0.0472638
-0.0456514
-0.044033
-0.04241
-0.0407844
-0.0875939
-0.0878017
-0.0879862
-0.0881155
-0.0881794
-0.0881816
-0.0881216
-0.0879992
-0.0878145
-0.0875678
-0.0872591
-0.0868891
-0.0864583
-0.0859673
-0.085417
-0.0848084
-0.0841426
-0.0834208
-0.0826443
-0.0818146
-0.0809332
-0.0800017
-0.0790218
-0.0779952
-0.0769237
-0.0758093
-0.0746536
-0.0734586
-0.0722261
-0.0709581
-0.0696564
-0.0683228
-0.0669592
-0.0655673
-0.0641489
-0.0627057
-0.0612394
-0.0597515
-0.0582438
-0.0567178
-0.0551749
-0.0536168
-0.0520449
-0.0504608
-0.0488659
-0.0472617
-0.0456497
-0.0440317
-0.0424091
-0.0407838
-0.0874016
-0.087623
-0.0878141
-0.0879493
-0.0880194
-0.0880278
-0.087974
-0.0878578
-0.0876793
-0.0874386
-0.0871361
-0.0867721
-0.0863473
-0.0858623
-0.0853179
-0.0847152
-0.0840551
-0.0833389
-0.082568
-0.0817436
-0.0808674
-0.079941
-0.0789659
-0.077944
-0.076877
-0.0757667
-0.074615
-0.0734238
-0.0721949
-0.0709302
-0.0696316
-0.0683008
-0.0669398
-0.0655503
-0.064134
-0.0626928
-0.0612282
-0.059742
-0.0582357
-0.0567109
-0.0551692
-0.0536121
-0.052041
-0.0504576
-0.0488633
-0.0472596
-0.0456482
-0.0440305
-0.0424083
-0.0407833
-0.0872249
-0.0874586
-0.0876559
-0.0877965
-0.0878725
-0.0878866
-0.0878384
-0.0877279
-0.087555
-0.0873199
-0.087023
-0.0866646
-0.0862453
-0.0857658
-0.0852268
-0.0846294
-0.0839747
-0.0832637
-0.0824978
-0.0816784
-0.080807
-0.0798851
-0.0789145
-0.0778969
-0.076834
-0.0757276
-0.0745796
-0.0733918
-0.0721661
-0.0709045
-0.0696086
-0.0682805
-0.0669219
-0.0655346
-0.0641204
-0.0626809
-0.061218
-0.0597332
-0.0582282
-0.0567046
-0.0551639
-0.0536076
-0.0520374
-0.0504546
-0.0488609
-0.0472577
-0.0456467
-0.0440295
-0.0424075
-0.0407828
-0.0870644
-0.0873091
-0.087512
-0.0876575
-0.0877388
-0.0877581
-0.0877151
-0.0876097
-0.0874419
-0.0872119
-0.0869201
-0.0865667
-0.0861525
-0.085678
-0.085144
-0.0845514
-0.0839015
-0.0831952
-0.0824339
-0.0816189
-0.0807519
-0.0798343
-0.0788677
-0.077854
-0.0767947
-0.0756919
-0.0745472
-0.0733626
-0.0721399
-0.070881
-0.0695877
-0.068262
-0.0669056
-0.0655203
-0.0641078
-0.0626701
-0.0612087
-0.0597252
-0.0582214
-0.0566988
-0.0551591
-0.0536036
-0.0520341
-0.0504519
-0.0488587
-0.047256
-0.0456454
-0.0440285
-0.0424068
-0.0407824
-0.0869203
-0.0871747
-0.0873828
-0.0875326
-0.0876187
-0.0876426
-0.0876043
-0.0875035
-0.0873403
-0.0871149
-0.0868276
-0.0864789
-0.0860691
-0.085599
-0.0850695
-0.0844813
-0.0838357
-0.0831336
-0.0823764
-0.0815655
-0.0807024
-0.0797885
-0.0788256
-0.0778153
-0.0767595
-0.0756598
-0.0745181
-0.0733363
-0.0721163
-0.0708599
-0.0695689
-0.0682453
-0.0668908
-0.0655073
-0.0640966
-0.0626603
-0.0612002
-0.059718
-0.0582153
-0.0566936
-0.0551547
-0.0536
-0.0520311
-0.0504495
-0.0488568
-0.0472545
-0.0456442
-0.0440276
-0.0424062
-0.040782
-0.086793
-0.0870558
-0.0872684
-0.0874221
-0.0875124
-0.0875406
-0.0875063
-0.0874096
-0.0872505
-0.0870292
-0.0867459
-0.0864011
-0.0859954
-0.0855293
-0.0850036
-0.0844193
-0.0837774
-0.0830791
-0.0823256
-0.0815182
-0.0806585
-0.079748
-0.0787883
-0.0777812
-0.0767282
-0.0756313
-0.0744923
-0.0733131
-0.0720954
-0.0708411
-0.0695522
-0.0682305
-0.0668778
-0.0654959
-0.0640866
-0.0626516
-0.0611927
-0.0597116
-0.0582098
-0.056689
-0.0551508
-0.0535968
-0.0520284
-0.0504473
-0.048855
-0.0472531
-0.0456431
-0.0440268
-0.0424056
-0.0407816
-0.0866828
-0.0869528
-0.0871694
-0.0873265
-0.0874204
-0.0874521
-0.0874214
-0.0873282
-0.0871727
-0.0869548
-0.0866751
-0.0863338
-0.0859315
-0.0854688
-0.0849465
-0.0843656
-0.083727
-0.0830319
-0.0822815
-0.0814773
-0.0806206
-0.0797129
-0.078756
-0.0777515
-0.0767011
-0.0756067
-0.07447
-0.0732929
-0.0720772
-0.0708249
-0.0695378
-0.0682177
-0.0668665
-0.065486
-0.0640779
-0.0626441
-0.0611862
-0.059706
-0.0582051
-0.056685
-0.0551475
-0.053594
-0.0520261
-0.0504455
-0.0488535
-0.0472519
-0.0456422
-0.0440261
-0.0424052
-0.0407813
-0.0865901
-0.086866
-0.087086
-0.0872459
-0.0873429
-0.0873776
-0.0873499
-0.0872597
-0.0871071
-0.0868923
-0.0866154
-0.0862771
-0.0858777
-0.0854179
-0.0848985
-0.0843203
-0.0836845
-0.0829921
-0.0822444
-0.0814427
-0.0805885
-0.0796834
-0.0787288
-0.0777265
-0.0766783
-0.0755859
-0.0744511
-0.0732758
-0.0720619
-0.0708112
-0.0695256
-0.0682068
-0.0668569
-0.0654776
-0.0640706
-0.0626378
-0.0611808
-0.0597013
-0.0582011
-0.0566816
-0.0551446
-0.0535916
-0.0520242
-0.0504439
-0.0488522
-0.0472509
-0.0456414
-0.0440255
-0.0424048
-0.040781
-0.0865152
-0.0867958
-0.0870186
-0.0871808
-0.0872803
-0.0873174
-0.0872922
-0.0872044
-0.0870542
-0.0868417
-0.0865672
-0.0862312
-0.0858342
-0.0853767
-0.0848596
-0.0842837
-0.0836502
-0.08296
-0.0822144
-0.0814148
-0.0805626
-0.0796594
-0.0787068
-0.0777063
-0.0766598
-0.0755691
-0.0744359
-0.0732621
-0.0720495
-0.0708001
-0.0695157
-0.0681981
-0.0668492
-0.0654708
-0.0640647
-0.0626326
-0.0611763
-0.0596975
-0.0581978
-0.0566789
-0.0551423
-0.0535897
-0.0520226
-0.0504426
-0.0488512
-0.0472501
-0.0456408
-0.044025
-0.0424044
-0.0407808
-0.0864584
-0.0867426
-0.0869675
-0.0871314
-0.0872328
-0.0872718
-0.0872483
-0.0871624
-0.087014
-0.0868033
-0.0865307
-0.0861965
-0.0858012
-0.0853455
-0.0848301
-0.084256
-0.0836241
-0.0829356
-0.0821916
-0.0813936
-0.080543
-0.0796413
-0.07869
-0.077691
-0.0766458
-0.0755563
-0.0744243
-0.0732516
-0.0720401
-0.0707917
-0.0695082
-0.0681914
-0.0668433
-0.0654656
-0.0640602
-0.0626287
-0.061173
-0.0596946
-0.0581954
-0.0566768
-0.0551406
-0.0535882
-0.0520214
-0.0504416
-0.0488504
-0.0472495
-0.0456403
-0.0440247
-0.0424042
-0.0407807
-0.08642
-0.0867066
-0.086933
-0.0870981
-0.0872007
-0.087241
-0.0872188
-0.0871341
-0.0869869
-0.0867775
-0.0865061
-0.086173
-0.085779
-0.0853244
-0.0848103
-0.0842373
-0.0836065
-0.0829191
-0.0821763
-0.0813794
-0.0805298
-0.079629
-0.0786788
-0.0776806
-0.0766363
-0.0755477
-0.0744165
-0.0732446
-0.0720338
-0.070786
-0.0695031
-0.0681869
-0.0668394
-0.0654622
-0.0640571
-0.0626261
-0.0611707
-0.0596927
-0.0581937
-0.0566754
-0.0551394
-0.0535873
-0.0520206
-0.0504409
-0.0488499
-0.047249
-0.04564
-0.0440244
-0.042404
-0.0407806
-0.0864005
-0.0866886
-0.0869158
-0.0870814
-0.0871847
-0.0872256
-0.087204
-0.0871199
-0.0869733
-0.0867645
-0.0864937
-0.0861613
-0.0857678
-0.0853139
-0.0848003
-0.0842279
-0.0835977
-0.0829109
-0.0821686
-0.0813722
-0.0805231
-0.0796229
-0.0786731
-0.0776754
-0.0766316
-0.0755434
-0.0744126
-0.073241
-0.0720306
-0.0707832
-0.0695006
-0.0681847
-0.0668374
-0.0654604
-0.0640556
-0.0626248
-0.0611695
-0.0596917
-0.0581929
-0.0566747
-0.0551388
-0.0535868
-0.0520202
-0.0504406
-0.0488496
-0.0472488
-0.0456398
-0.0440243
-0.0424039
-0.0407805
-0.0989638
-0.0986489
-0.0983271
-0.0994138
-0.0979826
-0.0990744
-0.0976303
-0.0987282
-0.097274
-0.0983757
-0.0994066
-0.0969128
-0.098016
-0.0990331
-0.096547
-0.09765
-0.0986521
-0.0999506
-0.0961775
-0.0972789
-0.0982656
-0.0995579
-0.0958051
-0.0969033
-0.0978751
-0.0991547
-0.0997891
-0.0954305
-0.0965241
-0.0974818
-0.0987425
-0.0993679
-0.0950543
-0.0961418
-0.0970866
-0.0983231
-0.0989502
-0.100985
-0.0946771
-0.0957571
-0.0966905
-0.097898
-0.0985352
-0.100398
-0.0953708
-0.0962941
-0.097469
-0.0981218
-0.0998165
-0.0949834
-0.0958979
-0.0970377
-0.0977094
-0.0992441
-0.0945957
-0.0955025
-0.0966055
-0.0972974
-0.098682
-0.0942083
-0.0951082
-0.0961738
-0.0968856
-0.0981315
-0.0938217
-0.0947153
-0.0957439
-0.0964741
-0.0975932
-0.0934366
-0.0943243
-0.0953167
-0.096063
-0.0970675
-0.0930536
-0.0939355
-0.094893
-0.0956526
-0.0965544
-0.0926732
-0.0935493
-0.0944738
-0.0952436
-0.0960541
-0.0922958
-0.093166
-0.0940596
-0.0948363
-0.0955666
-0.0919221
-0.092786
-0.0936509
-0.0944314
-0.0950915
-0.0915524
-0.0924097
-0.0932482
-0.0940296
-0.094629
-0.0911873
-0.0920376
-0.092852
-0.0936314
-0.0941787
-0.090827
-0.0916699
-0.0924624
-0.0932376
-0.0937405
-0.090472
-0.0913073
-0.0920799
-0.0928487
-0.0933143
-0.0901226
-0.0909499
-0.0917046
-0.0924653
-0.0929
-0.0897792
-0.0905984
-0.0913369
-0.0920881
-0.0924974
-0.0894421
-0.0902529
-0.090977
-0.0917174
-0.0921065
-0.0891116
-0.0899141
-0.0906251
-0.091354
-0.0917272
-0.088788
-0.0895822
-0.0902815
-0.0909981
-0.0913594
-0.0884717
-0.0892575
-0.0899463
-0.0906503
-0.0910031
-0.0881628
-0.0889406
-0.0896199
-0.0903111
-0.0906582
-0.0878618
-0.0886316
-0.0893023
-0.0899808
-0.0903249
-0.0875688
-0.088331
-0.088994
-0.0896597
-0.090003
-0.0872842
-0.088039
-0.0886951
-0.0893484
-0.0896926
-0.0870083
-0.087756
-0.0884058
-0.0890471
-0.0893937
-0.0867412
-0.0874823
-0.0881264
-0.0887561
-0.0891065
-0.0864834
-0.0872183
-0.0878572
-0.0884758
-0.0888309
-0.0862351
-0.0869641
-0.0875984
-0.0882065
-0.0885671
-0.0859966
-0.0867202
-0.0873503
-0.0879485
-0.0883152
-0.0857681
-0.0864868
-0.0871131
-0.0877022
-0.0880753
-0.0855499
-0.0862642
-0.0868871
-0.0874677
-0.0878475
-0.0853424
-0.0860527
-0.0866726
-0.0872454
-0.087632
-0.0851459
-0.0858525
-0.0864699
-0.0870355
-0.0874289
-0.0849605
-0.0856641
-0.0862793
-0.0868385
-0.0872385
-0.0847867
-0.0854876
-0.0861009
-0.0866545
-0.0870609
-0.0846246
-0.0853235
-0.0859353
-0.0864838
-0.0868964
-0.0844747
-0.0851719
-0.0857826
-0.0863269
-0.0867452
-0.0843373
-0.0850333
-0.0856431
-0.0861838
-0.0866076
-0.0842125
-0.0849078
-0.0855173
-0.0860551
-0.0864838
-0.0841008
-0.0847959
-0.0854053
-0.0859409
-0.0863742
-0.0840025
-0.0846978
-0.0853076
-0.0858416
-0.086279
-0.083918
-0.084614
-0.0852245
-0.0857576
-0.0861987
-0.0838474
-0.0845447
-0.0851563
-0.0856891
-0.0861335
-0.0837905
-0.0844897
-0.085103
-0.0856364
-0.0860838
-0.0837483
-0.0844498
-0.0850652
-0.0855998
-0.08605
-0.083728
-0.0844305
-0.0850468
-0.0855817
-0.0860333
)
;

boundaryField
{
    inlet
    {
        type            zeroGradient;
    }
    outlet
    {
        type            fixedValue;
        value           nonuniform 0();
    }
    cylinder
    {
        type            zeroGradient;
    }
    top
    {
        type            symmetryPlane;
    }
    bottom
    {
        type            symmetryPlane;
    }
    defaultFaces
    {
        type            empty;
    }
    procBoundary14to9
    {
        type            processor;
        value           nonuniform List<scalar> 
32
(
-0.0978955
-0.0975596
-0.0972357
-0.0968885
-0.0965327
-0.0961748
-0.095814
-0.0954501
-0.0950836
-0.0947153
-0.0943455
-0.0939747
-0.0936034
-0.0942995
-0.0942995
-0.0939219
-0.093545