/*--------------------------------*- C++ -*----------------------------------*\
  =========                 |
  \\      /  F ield         | OpenFOAM: The Open Source CFD Toolbox
   \\    /   O peration     | Website:  https://openfoam.org
    \\  /    A nd           | Version:  7
     \\/     M anipulation  |
\*---------------------------------------------------------------------------*/
FoamFile
{
    version     2.0;
    format      ascii;
    class       surfaceScalarField;
    location    "85";
    object      phi;
}
// * * * * * * * * * * * * * * * * * * * * * * * * * * * * * * * * * * * * * //

dimensions      [0 3 -1 0 0 0 0];

internalField   nonuniform List<scalar> 
5141
(
0.00214054
0.000634944
-0.00213183
0.00214986
0.000717312
0.00215978
0.000799715
0.00217029
0.000882096
0.00218138
0.000964399
0.00104656
0.00218948
0.000626071
-0.00218061
0.00219898
0.000707809
0.00220911
0.000789589
0.00221985
0.000871359
0.00223119
0.000953061
0.00224311
0.00103464
0.00225561
0.00111603
0.00226866
0.00119716
0.00127797
0.00223949
0.000617039
-0.00223046
0.00224918
0.000698123
0.00225951
0.000779258
0.00227048
0.000860392
0.00228207
0.000941469
0.00229427
0.00102243
0.00230707
0.00110322
0.00232046
0.00118378
0.0023344
0.00126403
0.00234888
0.0013439
0.00142333
0.00229061
0.00060785
-0.00228142
0.00230047
0.000688257
0.00231101
0.000768722
0.00232221
0.000849194
0.00233405
0.000929622
0.00234654
0.00100995
0.00235965
0.00109012
0.00237336
0.00117006
0.00238767
0.00124972
0.00240254
0.00132903
0.00241795
0.00140792
0.00243389
0.00148631
0.00245031
0.00156412
0.00164127
0.00234285
0.000598508
-0.00233351
0.00235289
0.000678212
0.00236363
0.000757981
0.00237506
0.000837767
0.00238717
0.000917518
0.00239993
0.000997179
0.00241335
0.0010767
0.00242741
0.00115601
0.00244208
0.00123505
0.00245734
0.00131377
0.00247318
0.00139208
0.00248957
0.00146992
0.00250648
0.00154721
0.00252387
0.00162388
0.00254172
0.00169984
0.001775
0.00239625
0.000589014
-0.00238675
0.00240647
0.000667989
0.00241741
0.000747037
0.00242907
0.00082611
0.00244143
0.000905157
0.00245448
0.000984127
0.00246821
0.00106297
0.00248261
0.00114161
0.00249765
0.00122001
0.00251332
0.0012981
0.00252959
0.00137581
0.00254644
0.00145307
0.00256384
0.00152981
0.00258176
0.00160596
0.00260017
0.00168143
0.00261903
0.00175614
0.00183
0.00245083
0.000579373
-0.00244119
0.00246123
0.000657593
0.00247238
0.000735892
0.00248426
0.000814224
0.00249688
0.00089254
0.00251022
0.00097079
0.00252426
0.00104892
0.002539
0.00112688
0.00255441
0.0012046
0.00257048
0.00128203
0.00258719
0.0013591
0.0026045
0.00143575
0.00262241
0.00151191
0.00264086
0.0015875
0.00265985
0.00166245
0.00267931
0.00173667
0.00269923
0.00181009
0.00271955
0.00188261
0.00195416
0.00250664
0.000569589
-0.00249686
0.00251721
0.000647026
0.00252855
0.000724548
0.00254066
0.000802111
0.00255354
0.000879668
0.00256716
0.000957168
0.00258152
0.00103456
0.0025966
0.0011118
0.00261239
0.00118881
0.00262886
0.00126555
0.00264601
0.00134196
0.0026638
0.00141796
0.00268221
0.0014935
0.00270121
0.0015685
0.00272077
0.00164288
0.00274085
0.00171658
0.00276143
0.00178952
0.00278245
0.0018616
0.00280386
0.00193274
0.00282563
0.00200285
0.00207185
0.0025637
0.000559665
-0.00255377
0.00257443
0.000636291
0.00258597
0.000713008
0.00259831
0.000789773
0.00261144
0.000866541
0.00262534
0.000943262
0.00264002
0.00101989
0.00265544
0.00109637
0.00267161
0.00117265
0.00268849
0.00124867
0.00270608
0.00132437
0.00272435
0.0013997
0.00274327
0.00147458
0.00276282
0.00154895
0.00278296
0.00162274
0.00280367
0.00169587
0.00282491
0.00176828
0.00284663
0.00183987
0.0028688
0.00191057
0.00289137
0.00198029
0.00291427
0.00204894
0.00211643
0.00262204
0.000549606
-0.00261198
0.00263294
0.000625392
0.00264467
0.000701275
0.00265723
0.000777213
0.00267061
0.000853161
0.0026848
0.000929073
0.00269979
0.0010049
0.00271556
0.0010806
0.0027321
0.0011561
0.0027494
0.00123137
0.00276744
0.00130634
0.00278618
0.00138095
0.00280562
0.00145514
0.00282572
0.00152885
0.00284646
0.001602
0.0028678
0.00167453
0.00288971
0.00174637
0.00291214
0.00181743
0.00293507
0.00188765
0.00295844
0.00195692
0.00298219
0.00202518
0.00300629
0.00209233
0.00303068
0.00215828
0.00222294
0.0026817
0.000539416
-0.00267151
0.00269276
0.000614333
0.00270468
0.000689352
0.00271746
0.000764432
0.00273109
0.00083953
0.00274556
0.000914601
0.00276086
0.000989599
0.00277698
0.00106448
0.00279391
0.00113918
0.00281162
0.00121366
0.0028301
0.00128786
0.00284933
0.00136172
0.00286929
0.00143518
0.00288995
0.00150819
0.00291128
0.00158067
0.00293326
0.00165256
0.00295584
0.00172379
0.002979
0.00179428
0.00300269
0.00186396
0.00302687
0.00193275
0.00305149
0.00200056
0.0030765
0.00206732
0.00310184
0.00213294
0.00312746
0.00219732
0.00226038
0.00274271
0.000529102
-0.0027324
0.00275393
0.000603119
0.00276603
0.000677243
0.00277903
0.000751435
0.00279291
0.000825651
0.00280766
0.00089985
0.00282328
0.000973985
0.00283974
0.00104801
0.00285705
0.00112188
0.00287517
0.00119553
0.0028941
0.00126893
0.00291382
0.001342
0.0029343
0.0014147
0.00295552
0.00148697
0.00297745
0.00155874
0.00300007
0.00162994
0.00302334
0.00170052
0.00304722
0.00177039
0.00307169
0.00183949
0.00309668
0.00190775
0.00312217
0.00197507
0.0031481
0.00204139
0.00317441
0.00210662
0.00320106
0.00217067
0.00322798
0.00223346
0.00325511
0.00229491
0.00235491
0.00280512
0.000518668
-0.00279469
0.00281648
0.000591755
0.00282877
0.000664953
0.00284198
0.000738224
0.00285611
0.000811527
0.00287114
0.00088482
0.00288706
0.000958059
0.00290387
0.0010312
0.00292156
0.00110419
0.0029401
0.00117699
0.00295948
0.00124954
0.00297968
0.0013218
0.00300069
0.0013937
0.00302247
0.00146518
0.00304501
0.0015362
0.00306828
0.00160668
0.00309223
0.00167656
0.00311685
0.00174577
0.00314209
0.00181425
0.00316791
0.00188193
0.00319427
0.00194871
0.00322113
0.00201454
0.00324842
0.00207933
0.0032761
0.00214299
0.00330411
0.00220545
0.00333239
0.00226662
0.00336088
0.00232642
0.00238476
0.00286896
0.00050812
-0.00285841
0.00288047
0.000580245
0.00289293
0.000652485
0.00290635
0.000724804
0.00292072
0.000797161
0.00293603
0.000869515
0.00295226
0.000941825
0.00296942
0.00101405
0.00298748
0.00108613
0.00300643
0.00115804
0.00302626
0.00122971
0.00304696
0.0013011
0.00306849
0.00137216
0.00309084
0.00144283
0.00311399
0.00151305
0.0031379
0.00158276
0.00316255
0.00165191
0.0031879
0.00172042
0.00321393
0.00178823
0.00324058
0.00185527
0.00326782
0.00192147
0.00329561
0.00198676
0.00332389
0.00205105
0.00335261
0.00211427
0.00338172
0.00217634
0.00341116
0.00223719
0.00344086
0.00229672
0.00347077
0.00235485
0.00350081
0.00241151
0.0024666
0.00293426
0.000497462
-0.00292361
0.00294591
0.000568594
0.00295855
0.000639845
0.00297218
0.000711178
0.00298679
0.000782555
0.00300236
0.000853937
0.00301891
0.000925282
0.0030364
0.000996549
0.00305484
0.00106769
0.00307421
0.00113867
0.00309449
0.00120943
0.00311568
0.00127992
0.00313774
0.0013501
0.00316066
0.00141991
0.00318441
0.0014893
0.00320898
0.0015582
0.00323432
0.00162656
0.00326042
0.00169433
0.00328723
0.00176142
0.00331472
0.00182778
0.00334284
0.00189334
0.00337157
0.00195803
0.00340084
0.00202178
0.00343061
0.0020845
0.00346082
0.00214613
0.00349143
0.00220658
0.00352236
0.00226578
0.00355355
0.00232365
0.00358495
0.00238011
0.00361649
0.00243507
0.00248846
0.00300108
0.000486701
-0.00299032
0.00301286
0.000556807
0.00302567
0.000627035
0.0030395
0.00069735
0.00305434
0.000767714
0.00307019
0.000838089
0.00308704
0.000908436
0.00310487
0.000978713
0.00312369
0.00104888
0.00314347
0.00111889
0.00316421
0.00118869
0.00318588
0.00125825
0.00320847
0.00132751
0.00323196
0.00139642
0.00325632
0.00146493
0.00328154
0.00153298
0.00330758
0.00160052
0.00333442
0.00166749
0.00336202
0.00173382
0.00339035
0.00179945
0.00341937
0.00186433
0.00344903
0.00192837
0.0034793
0.00199151
0.00351012
0.00205368
0.00354145
0.00211481
0.00357322
0.00217481
0.00360538
0.00223362
0.00363788
0.00229116
0.00367064
0.00234735
0.0037036
0.00240211
0.00373669
0.00245537
0.00376985
0.00250705
0.0025571
0.00306944
0.000475842
-0.00305858
0.00308136
0.000544889
0.00309433
0.000614061
0.00310836
0.000683324
0.00312343
0.000752641
0.00313955
0.000821974
0.0031567
0.000891287
0.00317487
0.000960539
0.00319406
0.00102969
0.00321425
0.00109869
0.00323544
0.00116751
0.0032576
0.00123609
0.00328072
0.00130439
0.00330478
0.00137236
0.00332976
0.00143995
0.00335563
0.00150711
0.00338237
0.00157378
0.00340996
0.0016399
0.00343835
0.00170542
0.00346752
0.00177028
0.00349743
0.00183442
0.00352804
0.00189776
0.00355931
0.00196024
0.00359118
0.0020218
0.00362362
0.00208237
0.00365656
0.00214187
0.00368996
0.00220022
0.00372376
0.00225737
0.00375788
0.00231322
0.00379228
0.00236771
0.00382688
0.00242077
0.00386161
0.00247232
0.0038964
0.00252231
0.00393119
0.00257066
0.00261735
0.0031394
0.000464889
-0.00312845
0.00315144
0.000532844
0.00316458
0.000600927
0.0031788
0.000669104
0.0031941
0.000737339
0.00321048
0.000805596
0.00322793
0.000873839
0.00324644
0.000942029
0.003266
0.00101013
0.0032866
0.00107809
0.00330823
0.00114588
0.00333088
0.00121344
0.00335453
0.00128074
0.00337916
0.00134773
0.00340475
0.00141436
0.00343128
0.00148058
0.00345872
0.00154633
0.00348705
0.00161157
0.00351624
0.00167624
0.00354626
0.00174027
0.00357706
0.00180361
0.00360862
0.0018662
0.00364088
0.00192798
0.00367382
0.00198887
0.00370737
0.00204882
0.00374149
0.00210774
0.00377613
0.00216559
0.00381122
0.00222227
0.00384672
0.00227773
0.00388255
0.00233188
0.00391865
0.00238467
0.00395496
0.00243601
0.00399141
0.00248586
0.00402791
0.00253415
0.00406441
0.00258085
0.00262593
0.00321099
0.000453847
-0.00319995
0.00322316
0.000520678
0.00323645
0.000587638
0.00325086
0.000654694
0.00326638
0.000721812
0.00328302
0.000788958
0.00330077
0.000856095
0.00331961
0.000923186
0.00333954
0.000990193
0.00336056
0.00105708
0.00338264
0.00112379
0.00340577
0.00119031
0.00342995
0.00125657
0.00345515
0.00132254
0.00348135
0.00138816
0.00350853
0.0014534
0.00353668
0.00151819
0.00356576
0.00158249
0.00359574
0.00164625
0.0036266
0.00170941
0.0036583
0.00177191
0.0036908
0.0018337
0.00372407
0.00189471
0.00375806
0.00195488
0.00379273
0.00201415
0.00382803
0.00207245
0.00386391
0.00212971
0.00390031
0.00218587
0.00393717
0.00224086
0.00397444
0.00229461
0.00401205
0.00234706
0.00404994
0.00239813
0.00408803
0.00244777
0.00412626
0.00249592
0.00416457
0.00254255
0.00258763
0.00328426
0.000442721
-0.00327313
0.00329654
0.000508393
0.00330999
0.000574196
0.00332458
0.000640097
0.00334033
0.000706064
0.00335723
0.000772061
0.00337527
0.000838056
0.00339444
0.000904012
0.00341474
0.000969891
0.00343616
0.00103566
0.00345869
0.00110127
0.00348231
0.00116669
0.00350701
0.00123187
0.00353278
0.00129677
0.00355959
0.00136135
0.00358743
0.00142556
0.00361628
0.00148935
0.0036461
0.00155267
0.00367688
0.00161547
0.00370858
0.00167771
0.00374118
0.00173932
0.00377463
0.00180025
0.0038089
0.00186044
0.00384395
0.00191983
0.00387974
0.00197836
0.00391622
0.00203597
0.00395333
0.00209259
0.00399103
0.00214817
0.00402927
0.00220263
0.00406797
0.00225591
0.00410709
0.00230794
0.00414655
0.00235866
0.0041863
0.00240802
0.00422626
0.00245596
0.00426636
0.00250244
0.00254744
0.00335925
0.000431514
-0.00334804
0.00337165
0.000495995
0.00338524
0.000560606
0.00340002
0.000625317
0.00341599
0.000690096
0.00343314
0.00075491
0.00345147
0.000819726
0.00347097
0.000884509
0.00349164
0.000949223
0.00351346
0.00101383
0.00353643
0.0010783
0.00356054
0.00114258
0.00358577
0.00120664
0.0036121
0.00127043
0.00363953
0.00133392
0.00366802
0.00139706
0.00369757
0.0014598
0.00372814
0.0015221
0.00375971
0.0015839
0.00379226
0.00164516
0.00382575
0.00170583
0.00386015
0.00176585
0.00389542
0.00182516
0.00393153
0.00188372
0.00396844
0.00194146
0.00400609
0.00199832
0.00404444
0.00205424
0.00408344
0.00210917
0.00412304
0.00216303
0.00416318
0.00221577
0.0042038
0.00226732
0.00424484
0.00231762
0.00428623
0.00236663
0.00432792
0.00241428
0.00436982
0.00246054
0.00250538
0.00343601
0.000420232
-0.00342472
0.00344852
0.000483485
0.00346225
0.00054687
0.00347721
0.000610356
0.0034934
0.000673912
0.0035108
0.000737507
0.00352942
0.000801107
0.00354925
0.000864679
0.00357028
0.00092819
0.00359251
0.000991603
0.00361593
0.00105488
0.00364052
0.00111799
0.00366627
0.00118089
0.00369317
0.00124353
0.0037212
0.00130589
0.00375035
0.00136791
0.0037806
0.00142956
0.00381192
0.00149078
0.00384428
0.00155153
0.00387767
0.00161177
0.00391206
0.00167144
0.0039474
0.0017305
0.00398368
0.00178889
0.00402084
0.00184655
0.00405886
0.00190344
0.00409768
0.00195949
0.00413727
0.00201466
0.00417757
0.00206887
0.00421853
0.00212207
0.0042601
0.0021742
0.00430222
0.0022252
0.00434483
0.00227501
0.00438787
0.00232359
0.00443128
0.00237087
0.00447498
0.00241683
0.00246144
0.00351458
0.000408875
-0.00350322
0.00352719
0.000470868
0.00354107
0.000532992
0.00355621
0.000595217
0.00357261
0.000657514
0.00359026
0.000719852
0.00360917
0.0007822
0.00362933
0.000844525
0.00365072
0.000906794
0.00367335
0.000968972
0.00369721
0.00103103
0.00372228
0.00109292
0.00374856
0.00115461
0.00377603
0.00121607
0.00380467
0.00127724
0.00383447
0.00133811
0.00386541
0.00139861
0.00389748
0.00145872
0.00393064
0.00151837
0.00396487
0.00157754
0.00400014
0.00163617
0.00403643
0.00169421
0.0040737
0.00175162
0.00411192
0.00180833
0.00415105
0.00186431
0.00419104
0.0019195
0.00423186
0.00197384
0.00427346
0.00202727
0.00431578
0.00207975
0.00435877
0.0021312
0.00440239
0.00218158
0.00444657
0.00223084
0.00449124
0.00227891
0.00453636
0.00232576
0.00458185
0.00237134
0.00241563
0.00359501
0.000397448
-0.00358358
0.00360773
0.000458146
0.00362175
0.000518973
0.00363706
0.000579902
0.00365367
0.000640904
0.00367158
0.000701949
0.00369077
0.000763007
0.00371125
0.000824046
0.00373301
0.000885035
0.00375604
0.00094594
0.00378034
0.00100673
0.00380589
0.00106736
0.00383269
0.00112781
0.00386072
0.00118803
0.00388997
0.00124799
0.00392043
0.00130765
0.00395207
0.00136697
0.00398487
0.00142591
0.00401883
0.00148442
0.0040539
0.00154247
0.00409006
0.0016
0.00412729
0.00165698
0.00416556
0.00171335
0.00420483
0.00176907
0.00424506
0.00182408
0.00428622
0.00187834
0.00432827
0.00193179
0.00437115
0.00198439
0.00441483
0.00203607
0.00445924
0.00208679
0.00450434
0.00213648
0.00455008
0.0021851
0.00459639
0.0022326
0.00464321
0.00227893
0.00469049
0.00232406
0.00236796
0.00367734
0.000385953
-0.00366585
0.00369017
0.00044532
0.00370433
0.000504815
0.00371982
0.000564412
0.00373664
0.000624083
0.00375479
0.000683798
0.00377427
0.000743528
0.00379507
0.000803244
0.00381719
0.000862914
0.00384062
0.000922507
0.00386536
0.000981989
0.0038914
0.00104133
0.00391872
0.00110049
0.00394731
0.00115944
0.00397717
0.00121813
0.00400828
0.00127655
0.00404062
0.00133464
0.00407417
0.00139236
0.00410891
0.00144968
0.00414482
0.00150656
0.00418187
0.00156295
0.00422004
0.00161881
0.0042593
0.00167409
0.00429962
0.00172875
0.00434095
0.00178274
0.00438327
0.00183602
0.00442654
0.00188853
0.0044707
0.00194022
0.00451573
0.00199105
0.00456155
0.00204096
0.00460814
0.0020899
0.00465542
0.00213782
0.00470335
0.00218467
0.00475187
0.00223041
0.00480092
0.00227501
0.00231843
0.00376163
0.000374391
-0.00375007
0.00377456
0.000432391
0.00378885
0.000490519
0.00380452
0.000548748
0.00382155
0.00060705
0.00383995
0.000665399
0.00385971
0.000723765
0.00388084
0.000782119
0.00390332
0.000840432
0.00392715
0.000898672
0.00395233
0.00095681
0.00397885
0.00101481
0.00400669
0.00107264
0.00403586
0.00113027
0.00406632
0.00118767
0.00409808
0.00124479
0.00413111
0.0013016
0.0041654
0.00135807
0.00420093
0.00141415
0.00423768
0.00146981
0.00427562
0.00152501
0.00431473
0.0015797
0.00435498
0.00163384
0.00439634
0.00168739
0.00443877
0.00174031
0.00448225
0.00179254
0.00452673
0.00184405
0.00457217
0.00189478
0.00461853
0.00194469
0.00466577
0.00199372
0.00471382
0.00204184
0.00476265
0.00208899
0.00481219
0.00213513
0.00486239
0.00218021
0.00491321
0.0022242
0.00226707
0.00384792
0.000362762
-0.00383629
0.00386095
0.000419361
0.00387539
0.000476086
0.00389122
0.00053291
0.00390847
0.000589808
0.00392711
0.000646752
0.00394716
0.000703716
0.00396861
0.00076067
0.00399146
0.000817587
0.00401569
0.000874437
0.00404131
0.000931189
0.00406831
0.000987812
0.00409668
0.00104428
0.00412641
0.00110055
0.00415748
0.00115659
0.00418989
0.00121238
0.00422362
0.00126787
0.00425865
0.00132304
0.00429497
0.00137783
0.00433255
0.00143223
0.00437138
0.00148618
0.00441142
0.00153965
0.00445266
0.0015926
0.00449505
0.00164499
0.00453858
0.00169678
0.00458321
0.00174791
0.0046289
0.00179836
0.00467561
0.00184807
0.00472331
0.001897
0.00477194
0.0019451
0.00482145
0.00199232
0.00487181
0.00203863
0.00492295
0.00208398
0.00497483
0.00212833
0.00502739
0.00217164
0.00221389
0.00393627
0.000351069
-0.00392457
0.0039494
0.00040623
0.00396397
0.000461515
0.00397998
0.000516898
0.00399744
0.000572354
0.00401633
0.000627857
0.00403667
0.00068338
0.00405844
0.000738896
0.00408165
0.000794378
0.00410629
0.000849797
0.00413235
0.000905125
0.00415983
0.00096033
0.00418873
0.00101538
0.00421902
0.00107025
0.0042507
0.00112491
0.00428377
0.00117932
0.00431819
0.00123345
0.00435397
0.00128726
0.00439107
0.00134073
0.00442949
0.00139381
0.0044692
0.00144647
0.00451017
0.00149868
0.00455239
0.00155038
0.00459583
0.00160156
0.00464045
0.00165216
0.00468623
0.00170214
0.00473312
0.00175147
0.0047811
0.00180009
0.00483011
0.00184798
0.00488013
0.00189508
0.0049311
0.00194135
0.00498297
0.00198676
0.00503571
0.00203125
0.00508924
0.00207479
0.00514354
0.00211735
0.00215889
0.00402671
0.000339309
-0.00401495
0.00403995
0.000392997
0.00405466
0.000446805
0.00407084
0.00050071
0.00408851
0.000554687
0.00410766
0.00060871
0.00412828
0.000662755
0.00415038
0.000716795
0.00417396
0.000770804
0.004199
0.000824753
0.00422551
0.000878615
0.00425348
0.000932362
0.0042829
0.000985964
0.00431376
0.00103939
0.00434606
0.00109262
0.00437977
0.0011456
0.0044149
0.00119832
0.00445141
0.00125075
0.00448931
0.00130283
0.00452856
0.00135456
0.00456915
0.00140588
0.00461106
0.00145677
0.00465427
0.00150718
0.00469874
0.00155709
0.00474445
0.00160645
0.00479136
0.00165522
0.00483946
0.00170337
0.00488869
0.00175086
0.00493902
0.00179765
0.00499042
0.00184369
0.00504283
0.00188894
0.00509621
0.00193337
0.00515052
0.00197694
0.0052057
0.00201961
0.00526172
0.00206134
0.0021021
0.00411932
0.000327484
-0.00410749
0.00413265
0.000379662
0.0041475
0.000431956
0.00416387
0.000484345
0.00418175
0.000536805
0.00420115
0.000589311
0.00422206
0.00064184
0.00424449
0.000694364
0.00426844
0.00074686
0.00429389
0.000799299
0.00432085
0.000851657
0.00434931
0.000903904
0.00437926
0.000956014
0.00441069
0.00100796
0.0044436
0.00105971
0.00447797
0.00111123
0.0045138
0.0011625
0.00455106
0.00121348
0.00458974
0.00126415
0.00462983
0.00131447
0.00467131
0.0013644
0.00471415
0.00141392
0.00475834
0.001463
0.00480384
0.00151158
0.00485064
0.00155965
0.00489869
0.00160716
0.00494798
0.00165409
0.00499846
0.00170038
0.00505011
0.001746
0.00510287
0.00179092
0.00515672
0.0018351
0.0052116
0.00187849
0.00526747
0.00192107
0.00532429
0.00196279
0.005382
0.00200362
0.00204353
0.00421413
0.000315593
-0.00420223
0.00422757
0.000366222
0.00424256
0.000416965
0.0042591
0.000467801
0.0042772
0.000518706
0.00429685
0.000569656
0.00431806
0.000620629
0.00434083
0.000671599
0.00436515
0.000722542
0.00439101
0.000773433
0.00441842
0.000824245
0.00444738
0.000874953
0.00447786
0.00092553
0.00450987
0.000975948
0.0045434
0.00102618
0.00457843
0.0010762
0.00461496
0.00112597
0.00465297
0.00117547
0.00469245
0.00122467
0.00473338
0.00127354
0.00477574
0.00132204
0.00481952
0.00137015
0.00486469
0.00141783
0.00491122
0.00146505
0.0049591
0.00151177
0.00500829
0.00155797
0.00505877
0.00160361
0.0051105
0.00164865
0.00516345
0.00169306
0.00521758
0.00173679
0.00527285
0.00177983
0.00532922
0.00182212
0.00538664
0.00186364
0.00544508
0.00190435
0.00550448
0.00194422
0.00198321
0.0043112
0.000303632
-0.00429924
0.00432474
0.000352676
0.00433988
0.00040183
0.0043566
0.000451074
0.00437492
0.000500385
0.00439484
0.000549742
0.00441635
0.00059912
0.00443945
0.000648496
0.00446415
0.000697848
0.00449043
0.000747149
0.0045183
0.000796376
0.00454775
0.000845503
0.00457877
0.000894505
0.00461137
0.000943356
0.00464552
0.000992029
0.00468122
0.0010405
0.00471846
0.00108873
0.00475722
0.00113671
0.0047975
0.0011844
0.00483927
0.00123177
0.00488252
0.00127879
0.00492723
0.00132544
0.00497339
0.00137168
0.00502096
0.00141748
0.00506992
0.00146281
0.00512025
0.00150764
0.00517191
0.00155194
0.00522489
0.00159567
0.00527914
0.00163881
0.00533462
0.00168131
0.00539131
0.00172314
0.00544916
0.00176428
0.00550812
0.00180467
0.00556817
0.00184431
0.00562925
0.00188314
0.00192114
0.00441058
0.000291602
-0.00439855
0.00442424
0.000339021
0.00443952
0.000386548
0.00445643
0.000434161
0.00447498
0.00048184
0.00449516
0.000529562
0.00451697
0.000577306
0.00454042
0.00062505
0.0045655
0.000672769
0.00459221
0.000720441
0.00462054
0.000768042
0.0046505
0.000815548
0.00468207
0.000862934
0.00471525
0.000910176
0.00475003
0.000957248
0.0047864
0.00100412
0.00482435
0.00105078
0.00486388
0.00109718
0.00490496
0.00114332
0.00494758
0.00118914
0.00499173
0.00123464
0.00503738
0.00127978
0.00508452
0.00132453
0.00513313
0.00136887
0.00518317
0.00141276
0.00523464
0.00145618
0.0052875
0.00149909
0.00534171
0.00154146
0.00539726
0.00158326
0.00545409
0.00162447
0.00551219
0.00166504
0.00557151
0.00170496
0.00563201
0.00174417
0.00569366
0.00178266
0.0057564
0.0018204
0.00185734
0.00451235
0.000279499
-0.00450024
0.00452611
0.000325255
0.00454155
0.000371114
0.00455865
0.000417058
0.00457742
0.000463064
0.00459787
0.000509113
0.00462
0.000555183
0.00464379
0.000601253
0.00466926
0.0006473
0.0046964
0.000693302
0.00472521
0.000739236
0.00475568
0.00078508
0.0047878
0.000830809
0.00482158
0.0008764
0.004857
0.000921828
0.00489405
0.00096707
0.00493273
0.0010121
0.00497302
0.00105689
0.00501491
0.00110142
0.00505839
0.00114567
0.00510343
0.0011896
0.00515003
0.00123318
0.00519817
0.0012764
0.00524782
0.00131922
0.00529895
0.00136162
0.00535156
0.00140357
0.00540561
0.00144504
0.00546106
0.001486
0.0055179
0.00152642
0.00557609
0.00156628
0.0056356
0.00160554
0.00569639
0.00164417
0.00575841
0.00168215
0.00582164
0.00171943
0.00588604
0.001756
0.00179182
0.00461654
0.000267322
-0.00460436
0.00463042
0.000311374
0.00464601
0.000355526
0.00466331
0.000399759
0.00468232
0.000444053
0.00470304
0.000488388
0.00472548
0.000532744
0.00474964
0.000577099
0.0047755
0.000621433
0.00480308
0.000665724
0.00483237
0.00070995
0.00486336
0.000754089
0.00489605
0.00079812
0.00493043
0.000842018
0.0049665
0.000885761
0.00500424
0.000929326
0.00504365
0.000972689
0.00508472
0.00101583
0.00512743
0.00105871
0.00517177
0.00110133
0.00521773
0.00114364
0.00526528
0.00118563
0.00531442
0.00122727
0.00536511
0.00126853
0.00541735
0.00130939
0.0054711
0.00134982
0.00552634
0.0013898
0.00558304
0.0014293
0.00564118
0.00146829
0.00570072
0.00150674
0.00576163
0.00154463
0.00582388
0.00158192
0.00588743
0.0016186
0.00595224
0.00165462
0.00601828
0.00168997
0.0017246
0.00472323
0.000255066
-0.00471097
0.00473723
0.000297374
0.00475298
0.000339778
0.00477047
0.00038226
0.00478973
0.000424801
0.00481073
0.000467381
0.0048335
0.00050998
0.00485802
0.00055258
0.00488429
0.000595159
0.00491232
0.000637697
0.00494209
0.000680174
0.00497361
0.000722567
0.00500688
0.000764857
0.00504188
0.00080702
0.0050786
0.000849036
0.00511705
0.000890881
0.0051572
0.000932534
0.00519906
0.000973972
0.0052426
0.00101517
0.00528782
0.00105611
0.00533469
0.00109676
0.00538321
0.00113711
0.00543336
0.00117712
0.00548511
0.00121678
0.00553845
0.00125605
0.00559335
0.00129492
0.00564979
0.00133336
0.00570775
0.00137134
0.00576719
0.00140884
0.00582808
0.00144584
0.00589041
0.0014823
0.00595412
0.00151821
0.00601919
0.00155353
0.00608558
0.00158823
0.00615325
0.0016223
0.00165568
0.00483247
0.000242729
-0.00482013
0.00484659
0.000283251
0.00486251
0.000323866
0.00488021
0.000364555
0.00489971
0.0004053
0.00492101
0.000446083
0.0049441
0.000486885
0.004969
0.000527687
0.00499569
0.000568469
0.00502417
0.000609213
0.00505445
0.000649897
0.00508651
0.000690502
0.00512036
0.000731008
0.00515599
0.000771394
0.00519338
0.000811639
0.00523254
0.000851722
0.00527346
0.000891621
0.00531611
0.000931316
0.0053605
0.000970784
0.0054066
0.00101
0.00545441
0.00104895
0.00550391
0.00108761
0.00555508
0.00112595
0.0056079
0.00116395
0.00566235
0.0012016
0.00571842
0.00123885
0.00577607
0.00127571
0.00583529
0.00131213
0.00589604
0.00134809
0.00595829
0.00138358
0.00602203
0.00141857
0.00608721
0.00145303
0.0061538
0.00148694
0.00622176
0.00152027
0.00629107
0.00155299
0.00158507
0.00494434
0.000230307
-0.00493191
0.00495859
0.000269001
0.00497467
0.000307784
0.00499259
0.000346638
0.00501234
0.000385545
0.00503394
0.000424488
0.00505737
0.000463449
0.00508265
0.00050241
0.00510977
0.000541353
0.00513872
0.000580259
0.00516951
0.000619108
0.00520213
0.000657882
0.00523658
0.000696561
0.00527284
0.000735127
0.00531092
0.000773558
0.00535081
0.000811835
0.0053925
0.000849937
0.00543597
0.000887845
0.00548121
0.000925539
0.00552822
0.000962996
0.00557698
0.0010002
0.00562747
0.00103712
0.00567967
0.00107374
0.00573358
0.00111005
0.00578916
0.00114601
0.0058464
0.00118161
0.00590528
0.00121683
0.00596576
0.00125164
0.00602783
0.00128602
0.00609146
0.00131996
0.00615662
0.00135342
0.00622327
0.00138638
0.00629138
0.00141882
0.00636093
0.00145072
0.00643188
0.00148204
0.00151277
0.00505889
0.000217796
-0.00504638
0.00507327
0.000254619
0.00508953
0.000291526
0.00510766
0.0003285
0.00512768
0.000365526
0.00514959
0.000402586
0.00517337
0.000439663
0.00519904
0.00047674
0.0052266
0.000513799
0.00525603
0.000550823
0.00528735
0.000587794
0.00532053
0.000624693
0.00535559
0.000661502
0.00539252
0.000698203
0.0054313
0.000734776
0.00547193
0.000771203
0.0055144
0.000807465
0.00555871
0.000843543
0.00560483
0.000879416
0.00565276
0.000915067
0.00570248
0.000950475
0.00575398
0.00098562
0.00580724
0.00102048
0.00586224
0.00105504
0.00591897
0.00108928
0.00597741
0.00112318
0.00603752
0.00115672
0.00609929
0.00118987
0.0061627
0.00122262
0.00622771
0.00125495
0.0062943
0.00128683
0.00636243
0.00131824
0.00643209
0.00134917
0.00650322
0.00137958
0.00657581
0.00140946
0.00143876
0.0051762
0.000205191
-0.00516359
0.00519072
0.000240098
0.00520716
0.000275085
0.00522552
0.000310136
0.00524581
0.000345236
0.00526803
0.000380368
0.00529218
0.000415516
0.00531825
0.000450664
0.00534625
0.000485796
0.00537618
0.000520893
0.00540804
0.000555941
0.00544181
0.00059092
0.0054775
0.000625814
0.00551509
0.000660606
0.00555459
0.000695277
0.00559599
0.00072981
0.00563926
0.000764187
0.00568442
0.000798389
0.00573144
0.000832399
0.0057803
0.000866199
0.00583101
0.000899769
0.00588354
0.000933091
0.00593787
0.000966148
0.005994
0.000998921
0.00605189
0.00103139
0.00611154
0.00106354
0.00617291
0.00109534
0.00623599
0.00112679
0.00630074
0.00115786
0.00636716
0.00118853
0.00643519
0.00121879
0.00650483
0.00124861
0.00657603
0.00127797
0.00664877
0.00130684
0.00672301
0.00133522
0.00136306
0.00529633
0.000192488
-0.00528363
0.005311
0.000225434
0.00532763
0.000258456
0.00534623
0.000291538
0.0053668
0.000324665
0.00538934
0.000357824
0.00541386
0.000390997
0.00544035
0.000424171
0.00546882
0.000457329
0.00549926
0.000490455
0.00553166
0.000523534
0.00556604
0.000556548
0.00560237
0.000589482
0.00564066
0.000622319
0.00568089
0.000655043
0.00572306
0.000687636
0.00576717
0.000720083
0.00581319
0.000752365
0.00586113
0.000784466
0.00591096
0.000816368
0.00596267
0.000848056
0.00601625
0.000879511
0.00607168
0.000910715
0.00612895
0.000941653
0.00618803
0.000972307
0.00624891
0.00100266
0.00631156
0.00103269
0.00637597
0.00106239
0.0064421
0.00109173
0.00650993
0.0011207
0.00657944
0.00114928
0.00665059
0.00117745
0.00672337
0.0012052
0.00679772
0.00123249
0.00687363
0.00125931
0.00128563
0.00541937
0.000179682
-0.00540657
0.00543419
0.000210621
0.00545101
0.000241629
0.00546986
0.000272696
0.00549072
0.000303805
0.0055136
0.000334943
0.0055385
0.000366095
0.00556542
0.000397248
0.00559437
0.000428385
0.00562533
0.000459493
0.00565831
0.000490556
0.0056933
0.000521559
0.00573029
0.000552487
0.00576929
0.000583323
0.00581028
0.000614053
0.00585325
0.000644661
0.0058982
0.000675131
0.00594512
0.000705446
0.005994
0.000735593
0.00604481
0.000765553
0.00609756
0.000795312
0.00615221
0.000824853
0.00620877
0.00085416
0.0062672
0.000883218
0.0063275
0.00091201
0.00638964
0.00094052
0.0064536
0.000968732
0.00651936
0.000996631
0.00658689
0.0010242
0.00665617
0.00105142
0.00672717
0.00107828
0.00679987
0.00110476
0.00687423
0.00113083
0.00695022
0.00115649
0.00702782
0.00118171
0.00120646
0.0055454
0.000166767
-0.00553248
0.00556037
0.00019565
0.0055774
0.000224599
0.00559649
0.000253601
0.00561766
0.000282644
0.00564088
0.000311713
0.00566618
0.000340797
0.00569355
0.00036988
0.00572299
0.00039895
0.00575449
0.000427991
0.00578805
0.000456991
0.00582368
0.000485935
0.00586135
0.000514809
0.00590108
0.000543597
0.00594285
0.000572286
0.00598665
0.000600861
0.00603247
0.000629307
0.00608031
0.00065761
0.00613015
0.000685755
0.00618197
0.000713726
0.00623577
0.00074151
0.00629154
0.000769091
0.00634924
0.000796454
0.00640887
0.000823586
0.00647041
0.000850469
0.00653384
0.000877092
0.00659914
0.000903437
0.00666628
0.000929491
0.00673524
0.000955239
0.00680599
0.000980664
0.00687852
0.00100575
0.00695279
0.00103049
0.00702877
0.00105485
0.00710643
0.00107883
0.00718574
0.0011024
0.00112554
0.00567449
0.000153737
-0.00566146
0.00568962
0.000180515
0.00570686
0.000207355
0.00572622
0.000234244
0.00574769
0.000261171
0.00577128
0.000288124
0.00579699
0.000315089
0.00582482
0.000342054
0.00585476
0.000369006
0.00588682
0.000395933
0.00592099
0.00042282
0.00595727
0.000449656
0.00599565
0.000476427
0.00603613
0.000503119
0.0060787
0.000529718
0.00612335