/*--------------------------------*- C++ -*----------------------------------*\
  =========                 |
  \\      /  F ield         | OpenFOAM: The Open Source CFD Toolbox
   \\    /   O peration     | Website:  https://openfoam.org
    \\  /    A nd           | Version:  7
     \\/     M anipulation  |
\*---------------------------------------------------------------------------*/
FoamFile
{
    version     2.0;
    format      ascii;
    class       volScalarField;
    location    "20";
    object      p;
}
// * * * * * * * * * * * * * * * * * * * * * * * * * * * * * * * * * * * * * //

dimensions      [0 2 -2 0 0 0 0];

internalField   nonuniform List<scalar> 
10500
(
-0.388863
-0.387576
-0.377298
-0.363181
-0.346153
-0.327281
-0.30766
-0.287507
-0.269272
-0.24877
-0.38992
-0.388256
-0.377867
-0.363612
-0.346498
-0.327547
-0.30786
-0.287612
-0.269408
-0.248404
-0.392024
-0.389613
-0.379001
-0.364472
-0.347184
-0.328076
-0.308258
-0.287821
-0.26968
-0.247675
-0.395157
-0.391632
-0.380688
-0.36575
-0.348204
-0.328862
-0.308848
-0.28813
-0.270084
-0.246587
-0.399291
-0.394297
-0.382913
-0.367435
-0.349546
-0.329895
-0.309625
-0.288535
-0.270619
-0.245147
-0.404394
-0.397583
-0.385656
-0.369509
-0.351198
-0.331166
-0.310579
-0.289031
-0.271278
-0.243368
-0.410425
-0.401462
-0.388894
-0.371954
-0.353143
-0.332661
-0.311702
-0.289611
-0.272054
-0.241265
-0.417337
-0.405899
-0.392596
-0.374747
-0.355362
-0.334366
-0.312983
-0.290273
-0.272937
-0.238859
-0.425054
-0.41087
-0.396733
-0.377864
-0.357836
-0.336267
-0.314409
-0.291011
-0.273912
-0.236176
-0.433531
-0.416323
-0.401269
-0.381278
-0.360543
-0.338345
-0.315968
-0.291823
-0.274962
-0.233248
-0.442699
-0.422215
-0.406168
-0.38496
-0.36346
-0.340586
-0.317647
-0.292708
-0.276062
-0.230116
-0.452484
-0.4285
-0.411391
-0.388882
-0.366564
-0.342972
-0.319432
-0.29367
-0.27718
-0.226829
-0.462811
-0.435127
-0.416896
-0.393012
-0.369831
-0.345486
-0.321309
-0.294716
-0.278276
-0.223449
-0.473597
-0.442045
-0.422641
-0.397318
-0.373237
-0.348111
-0.323264
-0.295856
-0.279298
-0.220058
-0.48476
-0.449199
-0.428581
-0.401769
-0.376755
-0.350829
-0.325283
-0.29711
-0.280193
-0.2168
-0.496211
-0.456533
-0.434671
-0.406329
-0.380359
-0.35362
-0.327351
-0.298502
-0.280905
-0.213892
-0.50786
-0.463987
-0.440864
-0.410964
-0.38402
-0.356462
-0.329453
-0.300065
-0.281314
-0.211427
-0.519616
-0.471504
-0.447112
-0.415638
-0.38771
-0.359332
-0.331585
-0.301848
-0.281159
-0.209168
-0.531382
-0.479025
-0.453366
-0.420314
-0.391395
-0.362202
-0.333751
-0.303942
-0.280439
-0.208636
-0.543024
-0.486451
-0.459544
-0.424922
-0.395014
-0.365012
-0.335918
-0.306363
-0.280494
-0.219968
-0.554347
-0.493627
-0.465511
-0.429352
-0.398467
-0.367664
-0.337952
-0.308774
-0.282474
-0.25849
-0.565482
-0.500702
-0.471398
-0.43371
-0.401828
-0.370182
-0.339785
-0.310779
-0.282576
-0.271668
-0.576249
-0.507523
-0.47707
-0.43788
-0.404987
-0.372452
-0.341272
-0.312098
-0.281485
-0.274983
-0.586497
-0.513974
-0.482423
-0.441769
-0.407855
-0.374384
-0.342332
-0.312689
-0.280086
-0.275069
-0.59611
-0.519973
-0.487383
-0.445309
-0.410364
-0.375902
-0.342898
-0.312529
-0.278322
-0.272883
-0.604969
-0.525432
-0.491871
-0.448426
-0.412436
-0.376929
-0.342895
-0.311578
-0.275999
-0.268803
-0.612948
-0.530261
-0.495799
-0.451038
-0.413987
-0.37738
-0.342244
-0.309798
-0.273019
-0.263261
-0.619917
-0.534359
-0.499074
-0.453055
-0.414929
-0.377166
-0.340863
-0.307155
-0.269318
-0.25659
-0.625744
-0.537625
-0.501595
-0.454381
-0.415165
-0.376198
-0.338672
-0.303615
-0.264841
-0.249002
-0.630292
-0.539949
-0.503258
-0.454916
-0.414596
-0.374385
-0.335594
-0.299144
-0.259538
-0.240629
-0.633423
-0.541222
-0.503953
-0.454555
-0.413122
-0.371635
-0.331555
-0.293706
-0.25337
-0.23155
-0.634995
-0.541329
-0.503568
-0.453188
-0.410638
-0.367858
-0.326484
-0.287267
-0.246302
-0.221809
-0.634868
-0.540153
-0.501986
-0.450705
-0.407042
-0.362968
-0.320317
-0.279795
-0.238306
-0.21142
-0.632902
-0.537577
-0.49909
-0.446995
-0.402231
-0.356882
-0.312993
-0.27126
-0.229362
-0.200386
-0.628957
-0.533483
-0.494763
-0.441948
-0.39611
-0.349523
-0.304462
-0.261637
-0.219456
-0.188699
-0.622897
-0.527753
-0.488888
-0.435457
-0.388585
-0.34082
-0.294678
-0.250908
-0.208578
-0.17635
-0.614594
-0.520276
-0.481355
-0.42742
-0.37957
-0.330713
-0.283606
-0.239058
-0.196728
-0.163328
-0.603936
-0.510955
-0.472063
-0.417746
-0.368993
-0.319152
-0.271222
-0.226082
-0.18391
-0.149628
-0.590813
-0.499693
-0.460917
-0.40635
-0.356788
-0.306097
-0.257508
-0.211981
-0.170136
-0.13525
-0.574982
-0.486307
-0.447766
-0.393117
-0.342877
-0.291505
-0.242453
-0.196762
-0.155422
-0.120198
-0.556045
-0.470505
-0.432399
-0.3779
-0.327169
-0.275333
-0.226047
-0.180435
-0.139791
-0.104483
-0.534835
-0.452789
-0.415127
-0.360893
-0.309789
-0.257666
-0.208353
-0.163049
-0.12328
-0.0881254
-0.511009
-0.432891
-0.395755
-0.341961
-0.290659
-0.238472
-0.189374
-0.144622
-0.105918
-0.0711457
-0.484394
-0.410681
-0.374188
-0.321048
-0.269758
-0.217761
-0.169137
-0.12519
-0.0877402
-0.0535715
-0.454978
-0.38614
-0.350416
-0.298155
-0.247108
-0.195569
-0.147689
-0.1048
-0.0687902
-0.0354312
-0.422782
-0.359271
-0.324445
-0.273301
-0.222743
-0.171945
-0.125083
-0.0835067
-0.0491248
-0.0167526
-0.387836
-0.330089
-0.296294
-0.246519
-0.196715
-0.146949
-0.10138
-0.0613469
-0.0288222
0.00240174
-0.350193
-0.298624
-0.266004
-0.21786
-0.169086
-0.120652
-0.0766496
-0.0383578
-0.00790143
0.0219279
-0.309928
-0.264929
-0.233632
-0.187392
-0.139938
-0.0931392
-0.0509781
-0.014777
0.0136745
0.0418292
-0.267142
-0.229077
-0.199259
-0.155203
-0.109364
-0.0645031
-0.024449
0.00947045
0.035714
0.0620468
-0.221961
-0.191164
-0.162986
-0.121397
-0.0774717
-0.0348481
0.00284137
0.0342855
0.0581687
0.0825141
-0.174533
-0.151303
-0.124932
-0.0860958
-0.0443817
-0.00428846
0.0307911
0.0595697
0.0809802
0.10316
-0.125028
-0.109634
-0.085236
-0.0494336
-0.0102289
0.0270548
0.059293
0.0852315
0.104078
0.123905
-0.0736182
-0.0663265
-0.0440513
-0.0115672
0.0248442
0.059052
0.0882344
0.111176
0.127389
0.144659
-0.0204882
-0.021579
-0.00156102
0.0273428
0.0606844
0.091567
0.117497
0.137303
0.150834
0.165319
0.0339782
0.0245356
0.0420505
0.0671191
0.0971299
0.124458
0.146959
0.163512
0.174338
0.185765
0.0896717
0.0716995
0.0865755
0.107573
0.134011
0.157579
0.176495
0.1897
0.197838
0.205855
0.146296
0.119678
0.131789
0.148503
0.171153
0.190779
0.205974
0.215773
0.221301
0.225359
0.203559
0.168236
0.177459
0.189704
0.208375
0.223906
0.235268
0.241638
0.244607
0.243906
0.261424
0.217262
0.223421
0.230999
0.24551
0.25681
0.264248
0.267175
0.267324
0.260861
0.320108
0.266782
0.269574
0.272242
0.282401
0.289347
0.292799
0.292253
0.288934
0.275478
0.377696
0.315685
0.315227
0.313004
0.318778
0.321341
0.320803
0.316791
0.310603
0.294036
0.434416
0.364014
0.360298
0.353154
0.354495
0.352657
0.348138
0.340654
0.331631
0.313248
0.490195
0.411614
0.404596
0.392505
0.389384
0.383149
0.374683
0.363744
0.351767
0.33177
0.544712
0.458194
0.44786
0.430838
0.423268
0.412676
0.40032
0.38598
0.371037
0.349393
0.597636
0.503461
0.489833
0.467941
0.455972
0.441097
0.424937
0.407276
0.38943
0.36615
0.648657
0.547143
0.530269
0.503607
0.487329
0.468281
0.44843
0.427551
0.406895
0.38202
0.697476
0.588973
0.568932
0.53764
0.517178
0.4941
0.470697
0.446728
0.423378
0.396953
0.743803
0.628694
0.605593
0.56985
0.545367
0.518433
0.491644
0.464734
0.438829
0.410908
0.787359
0.66606
0.640033
0.600056
0.571751
0.541166
0.511182
0.4815
0.453198
0.423847
0.827876
0.700836
0.672046
0.62809
0.596193
0.562191
0.529227
0.496963
0.466437
0.435737
0.865107
0.732803
0.70144
0.653793
0.618567
0.58141
0.5457
0.511063
0.478499
0.446544
0.898819
0.761759
0.728037
0.677022
0.638759
0.598732
0.56053
0.523743
0.489342
0.456237
0.928803
0.787517
0.751676
0.697643
0.656662
0.614074
0.573653
0.534953
0.498923
0.464788
0.95487
0.809913
0.772213
0.71554
0.672184
0.627362
0.58501
0.544649
0.507208
0.472169
0.976856
0.828803
0.789523
0.730613
0.685244
0.638534
0.594552
0.55279
0.514162
0.478358
0.994619
0.844063
0.803499
0.742774
0.695774
0.647536
0.602237
0.559343
0.519759
0.483333
1.00805
0.855595
0.814056
0.751954
0.703718
0.654324
0.608029
0.564281
0.523977
0.487079
1.01706
0.863324
0.821129
0.758102
0.709035
0.658866
0.611904
0.567583
0.526797
0.489583
1.02158
0.867206
0.824679
0.761185
0.711701
0.661142
0.613845
0.569237
0.528209
0.490836
1.02158
0.867206
0.824679
0.761185
0.711701
0.661142
0.613845
0.569237
0.528209
0.490836
1.01706
0.863324
0.821129
0.758102
0.709035
0.658866
0.611904
0.567583
0.526797
0.489583
1.00805
0.855595
0.814056
0.751954
0.703718
0.654324
0.608029
0.564281
0.523977
0.487079
0.994619
0.844063
0.803499
0.742774
0.695774
0.647536
0.602237
0.559343
0.519759
0.483333
0.976856
0.828803
0.789523
0.730613
0.685244
0.638534
0.594552
0.55279
0.514162
0.478358
0.95487
0.809913
0.772213
0.71554
0.672184
0.627362
0.58501
0.544649
0.507208
0.472169
0.928803
0.787517
0.751676
0.697643
0.656662
0.614074
0.573653
0.534953
0.498923
0.464788
0.898819
0.761759
0.728037
0.677022
0.638759
0.598732
0.56053
0.523743
0.489342
0.456237
0.865107
0.732803
0.70144
0.653793
0.618567
0.58141
0.5457
0.511063
0.478499
0.446544
0.827876
0.700836
0.672046
0.62809
0.596193
0.562191
0.529227
0.496963
0.466437
0.435737
0.787359
0.66606
0.640033
0.600056
0.571751
0.541166
0.511182
0.4815
0.453198
0.423847
0.743803
0.628694
0.605593
0.56985
0.545367
0.518433
0.491644
0.464734
0.438829
0.410908
0.697476
0.588973
0.568932
0.53764
0.517178
0.4941
0.470697
0.446728
0.423378
0.396953
0.648657
0.547143
0.530269
0.503607
0.487329
0.468281
0.44843
0.427551
0.406895
0.38202
0.597636
0.503461
0.489833
0.467941
0.455972
0.441097
0.424937
0.407276
0.38943
0.36615
0.544712
0.458194
0.44786
0.430838
0.423268
0.412676
0.40032
0.38598
0.371037
0.349393
0.490195
0.411614
0.404596
0.392505
0.389384
0.383149
0.374683
0.363744
0.351767
0.33177
0.434416
0.364014
0.360298
0.353154
0.354495
0.352657
0.348138
0.340654
0.331631
0.313248
0.377696
0.315685
0.315227
0.313004
0.318778
0.321341
0.320803
0.316791
0.310603
0.294036
0.320108
0.266782
0.269574
0.272242
0.282401
0.289347
0.292799
0.292253
0.288934
0.275478
0.261424
0.217262
0.223421
0.230999
0.24551
0.25681
0.264248
0.267175
0.267324
0.260861
0.203559
0.168236
0.177459
0.189704
0.208375
0.223906
0.235268
0.241638
0.244607
0.243906
0.146296
0.119678
0.131789
0.148503
0.171153
0.190779
0.205974
0.215773
0.221301
0.225359
0.0896717
0.0716995
0.0865755
0.107573
0.134011
0.157579
0.176495
0.1897
0.197838
0.205855
0.0339782
0.0245356
0.0420505
0.0671191
0.0971299
0.124458
0.146959
0.163512
0.174338
0.185765
-0.0204881
-0.021579
-0.00156101
0.0273428
0.0606844
0.091567
0.117497
0.137303
0.150834
0.165319
-0.0736182
-0.0663265
-0.0440513
-0.0115671
0.0248442
0.059052
0.0882344
0.111176
0.127389
0.144659
-0.125028
-0.109634
-0.085236
-0.0494335
-0.0102288
0.0270548
0.059293
0.0852315
0.104078
0.123905
-0.174533
-0.151303
-0.124932
-0.0860958
-0.0443817
-0.00428846
0.0307911
0.0595697
0.0809802
0.10316
-0.221961
-0.191164
-0.162986
-0.121397
-0.0774717
-0.0348481
0.00284138
0.0342855
0.0581687
0.0825141
-0.267142
-0.229077
-0.199259
-0.155203
-0.109364
-0.0645031
-0.024449
0.00947046
0.035714
0.0620468
-0.309928
-0.264929
-0.233632
-0.187392
-0.139938
-0.0931391
-0.0509781
-0.014777
0.0136745
0.0418292
-0.350193
-0.298624
-0.266004
-0.21786
-0.169086
-0.120652
-0.0766496
-0.0383578
-0.00790142
0.0219279
-0.387836
-0.330089
-0.296294
-0.246519
-0.196715
-0.146949
-0.10138
-0.0613469
-0.0288221
0.00240175
-0.422782
-0.359271
-0.324445
-0.273301
-0.222743
-0.171945
-0.125083
-0.0835067
-0.0491248
-0.0167526
-0.454978
-0.38614
-0.350416
-0.298155
-0.247108
-0.195569
-0.147689
-0.1048
-0.0687902
-0.0354312
-0.484394
-0.410681
-0.374188
-0.321048
-0.269758
-0.217761
-0.169137
-0.12519
-0.0877401
-0.0535715
-0.511009
-0.432891
-0.395755
-0.341961
-0.290659
-0.238472
-0.189374
-0.144622
-0.105918
-0.0711457
-0.534835
-0.452789
-0.415127
-0.360893
-0.309789
-0.257666
-0.208353
-0.163049
-0.12328
-0.0881254
-0.556045
-0.470505
-0.432399
-0.3779
-0.327169
-0.275333
-0.226047
-0.180435
-0.139791
-0.104483
-0.574982
-0.486307
-0.447766
-0.393117
-0.342877
-0.291505
-0.242453
-0.196762
-0.155422
-0.120198
-0.590813
-0.499693
-0.460917
-0.40635
-0.356788
-0.306097
-0.257508
-0.211981
-0.170136
-0.135249
-0.603936
-0.510955
-0.472063
-0.417746
-0.368993
-0.319152
-0.271222
-0.226082
-0.18391
-0.149628
-0.614594
-0.520276
-0.481355
-0.42742
-0.37957
-0.330713
-0.283606
-0.239058
-0.196728
-0.163328
-0.622897
-0.527753
-0.488888
-0.435457
-0.388584
-0.34082
-0.294678
-0.250908
-0.208578
-0.17635
-0.628957
-0.533483
-0.494763
-0.441948
-0.39611
-0.349523
-0.304462
-0.261637
-0.219456
-0.188699
-0.632902
-0.537577
-0.49909
-0.446995
-0.402231
-0.356882
-0.312993
-0.27126
-0.229362
-0.200386
-0.634868
-0.540153
-0.501986
-0.450705
-0.407042
-0.362968
-0.320317
-0.279795
-0.238306
-0.21142
-0.634995
-0.541329
-0.503568
-0.453188
-0.410638
-0.367858
-0.326484
-0.287267
-0.246302
-0.221809
-0.633423
-0.541222
-0.503953
-0.454555
-0.413122
-0.371635
-0.331555
-0.293706
-0.25337
-0.23155
-0.630292
-0.539949
-0.503258
-0.454916
-0.414596
-0.374385
-0.335594
-0.299144
-0.259538
-0.240629
-0.625744
-0.537625
-0.501595
-0.454381
-0.415165
-0.376198
-0.338672
-0.303615
-0.264841
-0.249002
-0.619917
-0.534359
-0.499074
-0.453055
-0.414929
-0.377166
-0.340863
-0.307155
-0.269318
-0.25659
-0.612948
-0.530261
-0.495799
-0.451038
-0.413987
-0.37738
-0.342244
-0.309798
-0.273019
-0.263261
-0.604969
-0.525432
-0.491871
-0.448426
-0.412436
-0.376929
-0.342895
-0.311578
-0.275999
-0.268803
-0.59611
-0.519973
-0.487383
-0.445309
-0.410364
-0.375902
-0.342898
-0.312529
-0.278322
-0.272883
-0.586497
-0.513974
-0.482423
-0.441769
-0.407855
-0.374384
-0.342331
-0.312689
-0.280086
-0.275069
-0.576248
-0.507523
-0.47707
-0.43788
-0.404987
-0.372452
-0.341272
-0.312098
-0.281485
-0.274983
-0.565482
-0.500702
-0.471398
-0.43371
-0.401828
-0.370182
-0.339785
-0.310779
-0.282576
-0.271668
-0.554347
-0.493627
-0.465511
-0.429352
-0.398467
-0.367664
-0.337952
-0.308774
-0.282474
-0.25849
-0.543024
-0.486451
-0.459544
-0.424922
-0.395014
-0.365012
-0.335918
-0.306363
-0.280494
-0.219968
-0.531382
-0.479025
-0.453366
-0.420314
-0.391395
-0.362202
-0.333751
-0.303942
-0.280439
-0.208636
-0.519616
-0.471504
-0.447112
-0.415638
-0.38771
-0.359332
-0.331585
-0.301848
-0.281159
-0.209168
-0.50786
-0.463987
-0.440864
-0.410964
-0.38402
-0.356462
-0.329453
-0.300065
-0.281314
-0.211427
-0.496211
-0.456533
-0.434671
-0.406329
-0.380359
-0.35362
-0.327351
-0.298502
-0.280905
-0.213892
-0.48476
-0.449199
-0.428581
-0.401769
-0.376755
-0.350829
-0.325283
-0.29711
-0.280193
-0.2168
-0.473597
-0.442045
-0.422641
-0.397318
-0.373237
-0.348111
-0.323264
-0.295856
-0.279298
-0.220058
-0.462811
-0.435127
-0.416896
-0.393012
-0.369831
-0.345486
-0.321309
-0.294716
-0.278276
-0.223449
-0.452484
-0.4285
-0.411391
-0.388882
-0.366564
-0.342972
-0.319432
-0.29367
-0.27718
-0.226829
-0.442699
-0.422215
-0.406168
-0.38496
-0.36346
-0.340586
-0.317647
-0.292708
-0.276062
-0.230116
-0.433531
-0.416323
-0.401269
-0.381278
-0.360543
-0.338345
-0.315968
-0.291823
-0.274962
-0.233248
-0.425054
-0.41087
-0.396733
-0.377864
-0.357836
-0.336267
-0.314409
-0.291011
-0.273912
-0.236176
-0.417337
-0.405899
-0.392596
-0.374747
-0.355362
-0.334366
-0.312983
-0.290273
-0.272937
-0.238859
-0.410425
-0.401462
-0.388894
-0.371954
-0.353143
-0.332661
-0.311702
-0.289611
-0.272054
-0.241265
-0.404394
-0.397583
-0.385656
-0.369509
-0.351198
-0.331166
-0.310579
-0.289031
-0.271278
-0.243368
-0.399291
-0.394297
-0.382913
-0.367435
-0.349546
-0.329895
-0.309625
-0.288535
-0.270619
-0.245147
-0.395157
-0.391632
-0.380688
-0.36575
-0.348204
-0.328862
-0.308848
-0.28813
-0.270084
-0.246587
-0.392024
-0.389613
-0.379001
-0.364472
-0.347184
-0.328076
-0.308258
-0.287821
-0.26968
-0.247675
-0.38992
-0.388256
-0.377867
-0.363612
-0.346498
-0.327547
-0.30786
-0.287612
-0.269408
-0.248404
-0.388863
-0.387576
-0.377298
-0.363181
-0.346153
-0.327281
-0.30766
-0.287507
-0.269272
-0.24877
-0.239066
-0.230549
-0.221543
-0.212514
-0.203366
-0.194148
-0.184929
-0.175761
-0.16669
-0.157762
-0.149016
-0.140489
-0.132209
-0.124201
-0.116486
-0.109079
-0.101988
-0.0952207
-0.0887793
-0.0826627
-0.0768675
-0.0713877
-0.0662153
-0.0613407
-0.0567529
-0.05244
-0.0483893
-0.0445873
-0.0410205
-0.037675
-0.034537
-0.0315927
-0.0288289
-0.0262319
-0.0237906
-0.0214895
-0.019324
-0.0172686
-0.0153428
-0.0134772
-0.0117792
-0.0100164
-0.00860245
-0.00674598
-0.00587142
-0.00338408
-0.00388372
0.000779071
-0.00359377
0.0077068
-0.239631
-0.230987
-0.221855
-0.212784
-0.203602
-0.194354
-0.185112
-0.175926
-0.16684
-0.1579
-0.149144
-0.140608
-0.132321
-0.124307
-0.116586
-0.109172
-0.102076
-0.0953034
-0.0888569
-0.0827355
-0.0769356
-0.0714512
-0.0662743
-0.0613955
-0.0568037
-0.052487
-0.0484326
-0.0446271
-0.0410571
-0.0377085
-0.0345676
-0.0316206
-0.0288544
-0.026255
-0.0238115
-0.0215084
-0.0193411
-0.0172839
-0.0153565
-0.0134895
-0.0117901
-0.0100261
-0.00861086
-0.00675383
-0.00587741
-0.00339141
-0.00388629
0.000768331
-0.00358855
0.0076795
-0.240753
-0.231858
-0.222475
-0.213322
-0.204071
-0.194762
-0.185475
-0.176253
-0.167138
-0.158174
-0.149399
-0.140845
-0.132543
-0.124516
-0.116783
-0.109358
-0.102251
-0.0954684
-0.0890118
-0.0828807
-0.0770714
-0.0715779
-0.0663923
-0.061505
-0.0569052
-0.0525808
-0.0485191
-0.0447067
-0.0411302
-0.0377755
-0.0346289
-0.0316765
-0.0289052
-0.0263012
-0.0238534
-0.0215462
-0.0193752
-0.0173146
-0.015384
-0.0135139
-0.0118118
-0.0100455
-0.00862767
-0.0067695
-0.00588937
-0.00340605
-0.00389144
0.000746903
-0.00357818
0.00762514
-0.242414
-0.233152
-0.223396
-0.214121
-0.204767
-0.195368
-0.186013
-0.176737
-0.16758
-0.158581
-0.149776
-0.141198
-0.132874
-0.124828
-0.117077
-0.109636
-0.102513
-0.0957147
-0.0892433
-0.0830977
-0.0772744
-0.0717674
-0.0665688
-0.061669
-0.0570571
-0.0527212
-0.0486486
-0.0448259
-0.0412396
-0.0378758
-0.0347206
-0.0317602
-0.0289814
-0.0263704
-0.023916
-0.0216028
-0.0194262
-0.0173604
-0.015425
-0.0135506
-0.0118444
-0.0100746
-0.00865282
-0.00679296
-0.00590728
-0.00342797
-0.00389916
0.000714887
-0.00356275
0.00754417
-0.244588
-0.234852
-0.224608
-0.215171
-0.205681
-0.196163
-0.186719
-0.177373
-0.168159
-0.159114
-0.150272
-0.141663
-0.133311
-0.12524
-0.117466
-0.110003
-0.102859
-0.0960412
-0.0895503
-0.0833859
-0.0775442
-0.0720193
-0.0668034
-0.0618869
-0.0572591
-0.052908
-0.0488209
-0.0449846
-0.0413853
-0.0380092
-0.0348426
-0.0318715
-0.0290827
-0.0264624
-0.0239994
-0.0216781
-0.0194941
-0.0174214
-0.0154797
-0.0135994
-0.0118877
-0.0101132
-0.00868628
-0.00682418
-0.0059311
-0.00345712
-0.00390945
0.000672433
-0.00354241
0.00743728
-0.247238
-0.236937
-0.226094
-0.216459
-0.206801
-0.197137
-0.187582
-0.178151
-0.168869
-0.159769
-0.150882
-0.142234
-0.13385
-0.125748
-0.117947
-0.110458
-0.103289
-0.0964465
-0.0899318
-0.0837441
-0.0778798
-0.0723328
-0.0670956
-0.0621585
-0.0575109
-0.0531409
-0.0490358
-0.0451823
-0.0415669
-0.0381757
-0.0349948
-0.0320103
-0.0292091
-0.0265771
-0.0241033
-0.021772
-0.0195787
-0.0174974
-0.0155477
-0.0136601
-0.0119417
-0.0101614
-0.00872797
-0.00686308
-0.00596078
-0.00349343
-0.00392233
0.000619737
-0.00351736
0.00730536
-0.250317
-0.239376
-0.227835
-0.217968
-0.208112
-0.198275
-0.188592
-0.17906
-0.1697
-0.160537
-0.151598
-0.142907
-0.134485
-0.12635
-0.118517
-0.110997
-0.1038
-0.0969287
-0.0903863
-0.0841713
-0.0782802
-0.0727072
-0.0674446
-0.0624831
-0.0578119
-0.0534194
-0.0492928
-0.0454189
-0.0417842
-0.0383748
-0.0351769
-0.0321764
-0.0293602
-0.0267144
-0.0242276
-0.0218843
-0.0196799
-0.0175882
-0.0156291
-0.0137328
-0.0120062
-0.010219
-0.0087778
-0.0069096
-0.00599627
-0.00353681
-0.0039378
0.000557038
-0.00348784
0.0071495
-0.253763
-0.242129
-0.229804
-0.219675
-0.209594
-0.199561
-0.189732
-0.180089
-0.170641
-0.161409
-0.152414
-0.143675
-0.135212
-0.127039
-0.119171
-0.111619
-0.104389
-0.0974858
-0.0909119
-0.0846659
-0.0787443
-0.0731414
-0.0678497
-0.06286
-0.0581616
-0.053743
-0.0495915
-0.045694
-0.0420369
-0.0386064
-0.0353886
-0.0323695
-0.029536
-0.0268739
-0.0243722
-0.0220148
-0.0197975
-0.0176938
-0.0157237
-0.0138172
-0.0120811
-0.0102859
-0.00883568
-0.00696365
-0.0060375
-0.00358718
-0.00395587
0.000484618
-0.00345415
0.00697095
-0.257505
-0.245148
-0.231967
-0.221552
-0.211223
-0.200975
-0.190986
-0.181223
-0.17168
-0.162374
-0.15332
-0.144531
-0.136024
-0.127812
-0.119907
-0.112319
-0.105053
-0.0981155
-0.0915069
-0.0852264
-0.0792707
-0.0736343
-0.0683099
-0.0632884
-0.0585593
-0.0541111
-0.0499314
-0.046007
-0.0423245
-0.0388699
-0.0356296
-0.0325893
-0.029736
-0.0270555
-0.0245366
-0.0221633
-0.0199312
-0.0178139
-0.0158313
-0.0139132
-0.0121663
-0.010362
-0.00890147
-0.00702514
-0.00608438
-0.00364441
-0.00397656
0.000402796
-0.00341659
0.00677114
-0.261455
-0.248368
-0.234284
-0.223565
-0.212971
-0.202492
-0.192335
-0.182444
-0.172804
-0.163423
-0.154307
-0.145468
-0.136917
-0.128664
-0.12072
-0.113093
-0.10579
-0.0988151
-0.0921688
-0.0858508
-0.0798578
-0.0741846
-0.0688241
-0.0637673
-0.059004
-0.054523
-0.0503118
-0.0463575
-0.0426465
-0.0391651
-0.0358994
-0.0328355
-0.02996
-0.0272588
-0.0247206
-0.0223295
-0.0200809
-0.0179483
-0.0159516
-0.0140206
-0.0122616
-0.0104471
-0.00897505
-0.00709394
-0.00613684
-0.00370838
-0.00399987
0.000311928
-0.00337553
0.00655163
-0.265511
-0.251712
-0.236703
-0.225673
-0.214802
-0.204086
-0.193757
-0.183737
-0.173999
-0.164542
-0.155367
-0.146477
-0.137881
-0.129588
-0.121604
-0.113939
-0.106597
-0.0995818
-0.0928955
-0.0865372
-0.080504
-0.0747908
-0.0693909
-0.0642956
-0.059495
-0.0549779
-0.0507321
-0.0467447
-0.0430023
-0.0394912
-0.0361976
-0.0331075
-0.0302075
-0.0274834
-0.024924
-0.0225131
-0.0202462
-0.0180967
-0.0160844
-0.0141392
-0.0123668
-0.0105412
-0.00905627
-0.00716992
-0.00619477
-0.00377896
-0.00402583
0.000212397
-0.00333135
0.00631408
-0.269553
-0.255084
-0.23916
-0.227824
-0.216675
-0.205725
-0.195226
-0.185081
-0.175249
-0.16572
-0.156488
-0.14755
-0.138912
-0.130578
-0.122556
-0.114851
-0.107469
-0.100412
-0.0936841
-0.0872833
-0.0812072
-0.0754513
-0.070009
-0.0648722
-0.0600311
-0.0554748
-0.0511913
-0.0471679
-0.0433914
-0.0398479
-0.0365237
-0.0334049
-0.0304781
-0.027729
-0.0251463
-0.0227137
-0.0204269
-0.0182588
-0.0162295
-0.0142687
-0.0124817
-0.0106439
-0.00914496
-0.00725296
-0.00625807
-0.00385598
-0.00405445
0.000104615
-0.00328447
0.00606024
-0.273442
-0.258368
-0.241582
-0.229958
-0.218545
-0.207374
-0.196718
-0.186457
-0.176539
-0.166945
-0.157661
-0.14868
-0.140002
-0.13163
-0.12357
-0.115825
-0.108402
-0.101304
-0.0945323
-0.0880869
-0.0819656
-0.0761644
-0.0706771
-0.0654958
-0.0606113
-0.0560129
-0.0516888
-0.0476266
-0.043813
-0.0402344
-0.0368772
-0.0337273
-0.0307713
-0.027995
-0.0253871
-0.022931
-0.0206225
-0.0184344
-0.0163866
-0.014409
-0.012606
-0.0107551
-0.00924096
-0.00734291
-0.00632663
-0.00393928
-0.00408576
-1.09914e-05
-0.0032353
0.00579193
-0.277024
-0.261434
-0.243886
-0.232006
-0.220358
-0.208996
-0.198204
-0.187844
-0.177853
-0.168204
-0.158876
-0.149857
-0.141144
-0.132738
-0.124641
-0.116858
-0.109395
-0.102254
-0.0954375
-0.0889459
-0.0827775
-0.0769287
-0.0713937
-0.0661654
-0.0612346
-0.0565912
-0.0522238
-0.0481199
-0.0442665
-0.0406503
-0.0372574
-0.0340741
-0.0310868
-0.0282812
-0.0256461
-0.0231647
-0.0208329
-0.0186231
-0.0165554
-0.0145597
-0.0127396
-0.0108746
-0.0093441
-0.00743961
-0.00640035
-0.0040287
-0.00411979
-0.00013397
-0.00318429
0.005511
-0.280126
-0.264118
-0.245965
-0.233878
-0.222043
-0.21054
-0.199647
-0.189214
-0.17917
-0.169481
-0.16012
-0.151071
-0.142329
-0.133892
-0.125762
-0.117943
-0.11044
-0.103256
-0.0963949
-0.0898561
-0.0836391
-0.0777407
-0.072156
-0.0668782
-0.0618987
-0.0572078
-0.0527943
-0.0486461
-0.0447505
-0.0410941
-0.0376633
-0.0344442
-0.0314234
-0.0285866
-0.0259223
-0.023414
-0.0210571
-0.0188243
-0.0167354
-0.0147203
-0.012882
-0.011002
-0.00945403
-0.00754278
-0.00647902
-0.00412397
-0.00415652
-0.000263815
-0.00313192
0.00521932
-0.282472
-0.266156
-0.247656
-0.235448
-0.223512
-0.211944
-0.201001
-0.190532
-0.180462
-0.170752
-0.161371
-0.152304
-0.14354
-0.135078
-0.126919
-0.119067
-0.111527
-0.104302
-0.0973955
-0.0908092
-0.0845427
-0.0785936
-0.0729576
-0.0676284
-0.0625983
-0.0578577
-0.053396
-0.0492014
-0.0452613
-0.0415626
-0.0380918
-0.034835
-0.0317789
-0.0289091
-0.0262141
-0.0236772
-0.021294
-0.0190369
-0.0169256
-0.0148901
-0.0130325
-0.0111368
-0.00957027
-0.00765202
-0.00656233
-0.00422477
-0.00419589
-0.000399985
-0.00307863
0.00491873
-0.283608
-0.267272
-0.248874
-0.23667
-0.224749
-0.213214
-0.202282
-0.191816
-0.181747
-0.172034
-0.162648
-0.153571
-0.144792
-0.136309
-0.128125
-0.120241
-0.112664
-0.105397
-0.0984457
-0.0918109
-0.0854935
-0.0794918
-0.0738024
-0.0684197
-0.0633365
-0.0585438
-0.0540314
-0.0497879
-0.045801
-0.0420577
-0.0385447
-0.0352481
-0.0321546
-0.0292499
-0.0265225
-0.0239554
-0.0215444
-0.0192615
-0.0171265
-0.0150696
-0.0131916
-0.0112794
-0.00969321
-0.00776765
-0.00665058
-0.00433126
-0.00423816
-0.000542297
-0.0030248
0.00461075
-0.283762
-0.267752
-0.249839
-0.237669
-0.225856
-0.214449
-0.203587
-0.193164
-0.183121
-0.173422
-0.164039
-0.154957
-0.146165
-0.137663
-0.129451
-0.121534
-0.113918
-0.106606
-0.0996053
-0.0929174
-0.086544
-0.0804846
-0.0747363
-0.0692944
-0.0641524
-0.059302
-0.0547334
-0.0504355
-0.0463965
-0.0426036
-0.0390436
-0.0357027
-0.0325677
-0.0296242
-0.0268607
-0.0242601
-0.0218182
-0.0195068
-0.0173456
-0.015265
-0.0133644
-0.0114341
-0.00982641
-0.00789251
-0.00674603
-0.00444509
-0.00428463
-0.00069145
-0.00297083
0.00429641
-0.283882
-0.26691
-0.249738
-0.237655
-0.226162
-0.215103
-0.204474
-0.194215
-0.184289
-0.17467
-0.165343
-0.156295
-0.147523
-0.139027
-0.130809
-0.122875
-0.115232
-0.107886
-0.100843
-0.0941069
-0.0876803
-0.0815639
-0.0757561
-0.0702532
-0.0650495
-0.0601376
-0.0555085
-0.0511517
-0.0470556
-0.043208
-0.0395959
-0.0362057
-0.0330244
-0.0300375
-0.0272335
-0.0245955
-0.0221188
-0.0197755
-0.0175849
-0.0154778
-0.0135521
-0.0116014
-0.00997001
-0.00802647
-0.00684849
-0.00456566
-0.00433531
-0.000846153
-0.00291799
0.00397896
-0.273548
-0.258645
-0.245587
-0.234376
-0.223838
-0.213575
-0.203497
-0.19365
-0.184037
-0.17466
-0.165521
-0.156622
-0.147967
-0.139563
-0.131415
-0.123533
-0.115926
-0.108602
-0.101569
-0.0948323
-0.0883967
-0.082264
-0.076434
-0.0709043
-0.0656704
-0.0607258
-0.0560623
-0.0516702
-0.0475388
-0.043656
-0.0400096
-0.0365861
-0.0333728
-0.0303554
-0.0275226
-0.0248575
-0.0223555
-0.0199887
-0.0177762
-0.0156495
-0.0137046
-0.0117395
-0.010089
-0.00814088
-0.00693499
-0.00467432
-0.00437829
-0.000993144
-0.00286932
0.00366949
-0.227981
-0.24786
-0.243714
-0.2332
-0.223189
-0.213178
-0.203201
-0.193405
-0.183815
-0.174445
-0.165303
-0.156396
-0.147732
-0.139317
-0.131161
-0.123273
-0.115662
-0.108338
-0.101308
-0.0945768
-0.0881497
-0.0820279
-0.0762107
-0.0706953
-0.0654769
-0.0605486
-0.0559019
-0.0515268
-0.0474122
-0.043546
-0.0399156
-0.0365075
-0.0333088
-0.030305
-0.0274849
-0.0248315
-0.0223402
-0.0199831
-0.0177789
-0.0156606
-0.0137211
-0.0117645
-0.0101143
-0.00818015
-0.00696163
-0.0047362
-0.00438998
-0.00110784
-0.00282495
0.00339399
-0.21335
-0.237101
-0.236709
-0.227698
-0.218939
-0.209816
-0.20047
-0.19116
-0.18196
-0.17291
-0.164037
-0.155358
-0.14689
-0.138645
-0.130637
-0.122876
-0.115376
-0.108147
-0.101198
-0.0945362
-0.0881665
-0.082092
-0.0763132
-0.0708282
-0.0656331
-0.060722
-0.0560872
-0.0517196
-0.0476086
-0.0437428
-0.0401101
-0.0366976
-0.0334928
-0.0304817
-0.0276533
-0.0249908
-0.0224899
-0.0201235
-0.0179091
-0.0157822
-0.0138316
-0.0118696
-0.0102047
-0.00827439
-0.00702867
-0.00483375
-0.00442
-0.00124639
-0.00277276
0.00310806
-0.208843
-0.228098
-0.228705
-0.220971
-0.213359
-0.205188
-0.196585
-0.187875
-0.179174
-0.170544
-0.162032
-0.153667
-0.145473
-0.13747
-0.129675
-0.122103
-0.114769
-0.107685
-0.100862
-0.0943092
-0.0880327
-0.082037
-0.0763239
-0.0708929
-0.0657412
-0.0608643
-0.0562554
-0.0519066
-0.0478083
-0.0439499
-0.0403203
-0.0369072
-0.0336987
-0.0306817
-0.0278454
-0.0251739
-0.0226626
-0.0202858
-0.0180596
-0.015923
-0.0139589
-0.0119909
-0.010308
-0.00838239
-0.00710402
-0.00494439
-0.00445211
-0.0014014
-0.00271032
0.00279867
-0.205491
-0.220109
-0.221197
-0.214486
-0.207743
-0.200399
-0.192498
-0.184375
-0.176174
-0.167973
-0.159833
-0.151794
-0.143887
-0.136138
-0.128568
-0.121195
-0.114038
-0.10711
-0.100423
-0.0939891
-0.0878152
-0.0819071
-0.0762681
-0.0708989
-0.0657981
-0.060962
-0.0563853
-0.052061
-0.0479804
-0.0441341
-0.0405115
-0.0371014
-0.0338925
-0.0308722
-0.0280304
-0.0253519
-0.0228319
-0.0204463
-0.0182093
-0.016064
-0.0140871
-0.012114
-0.0104132
-0.00849368
-0.00718146
-0.0050599
-0.00448528
-0.00156418
-0.00264499
0.00247349
-0.202108
-0.212604
-0.213898
-0.208065
-0.202031
-0.195426
-0.188199
-0.180663
-0.172973
-0.165218
-0.157469
-0.149774
-0.142172
-0.134693
-0.127363
-0.120204
-0.113235
-0.106473
-0.0999327
-0.0936259
-0.0875623
-0.0817487
-0.0761899
-0.0708878
-0.0658424
-0.0610513
-0.0565102
-0.0522132
-0.0481529
-0.0443205
-0.0407067
-0.0373008
-0.0340924
-0.0310697
-0.0282228
-0.0255375
-0.023009
-0.0206145
-0.0183667
-0.0162127
-0.0142226
-0.0122443
-0.0105248
-0.00861159
-0.00726418
-0.00518203
-0.00452187
-0.00173487
-0.00257896
0.00213346
-0.198264
-0.205355
-0.206565
-0.201501
-0.19609
-0.190166
-0.183598
-0.176654
-0.169494
-0.162211
-0.154879
-0.147555
-0.140283
-0.133097
-0.126029
-0.119102
-0.112339
-0.10576
-0.0993794
-0.0932124
-0.08727
-0.0815606
-0.0760903
-0.0708626
-0.0658787
-0.0611377
-0.0566365
-0.0523703
-0.048333
-0.0445168
-0.0409133
-0.0375128
-0.0343056
-0.0312807
-0.0284289
-0.0257367
-0.0231993
-0.0207954
-0.0185361
-0.0163727
-0.0143685
-0.0123845
-0.0106452
-0.00873816
-0.00735396
-0.00531201
-0.00456315
-0.00191394
-0.00251308
0.00177949
-0.193689
-0.198161
-0.199115