/*--------------------------------*- C++ -*----------------------------------*\
  =========                 |
  \\      /  F ield         | OpenFOAM: The Open Source CFD Toolbox
   \\    /   O peration     | Website:  https://openfoam.org
    \\  /    A nd           | Version:  7
     \\/     M anipulation  |
\*---------------------------------------------------------------------------*/
FoamFile
{
    version     2.0;
    format      ascii;
    class       surfaceScalarField;
    location    "20";
    object      phi;
}
// * * * * * * * * * * * * * * * * * * * * * * * * * * * * * * * * * * * * * //

dimensions      [0 3 -1 0 0 0 0];

internalField   nonuniform List<scalar> 
20715
(
-6.09267e-06
6.09268e-06
-1.23642e-12
-9.74621e-06
3.65354e-06
-2.97598e-12
-3.50073e-06
-6.24548e-06
-4.52786e-12
1.90586e-05
-2.25593e-05
-5.7502e-12
6.2878e-05
-4.38194e-05
-6.48316e-12
0.000132308
-6.94297e-05
-6.92142e-12
0.000230894
-9.85865e-05
-6.99288e-12
0.000361073
-0.000130179
-6.52587e-12
0.000522111
-0.000161038
-5.37025e-12
-0.000191526
-3.33931e-12
0.000713637
-5.84559e-06
1.19383e-05
-8.87456e-06
6.68252e-06
-1.63252e-06
-1.34875e-05
2.23098e-05
-4.65016e-05
6.79392e-05
-8.94488e-05
0.000139666
-0.000141156
0.000241123
-0.000200043
0.000374861
-0.000263917
0.000540275
-0.000326452
-0.000388327
0.000737076
-5.35458e-06
1.72928e-05
-7.13906e-06
8.46699e-06
2.08837e-06
-2.2715e-05
2.87865e-05
-7.31997e-05
7.80198e-05
-0.000138682
0.000154316
-0.000217453
0.000261478
-0.000307206
0.000402285
-0.000404723
0.000576384
-0.000500551
-0.000595583
0.000783639
-4.62438e-06
2.19172e-05
-4.55546e-06
8.39807e-06
7.62843e-06
-3.48988e-05
3.84295e-05
-0.000104001
9.30244e-05
-0.000193277
0.000176112
-0.00030054
0.000291741
-0.000422834
0.000443019
-0.000556002
0.000629978
-0.00068751
-0.000818284
0.000852679
-3.66195e-06
2.55792e-05
-1.14627e-06
5.88239e-06
1.49388e-05
-5.09839e-05
5.11513e-05
-0.000140213
0.000112811
-0.000254937
0.000204835
-0.000392563
0.000331582
-0.000549582
0.000496581
-0.000721001
0.000700372
-0.000891301
-0.00106114
0.000943231
-2.47643e-06
2.80556e-05
3.05546e-06
3.50509e-07
2.39545e-05
-7.1883e-05
6.68374e-05
-0.000183096
0.000137196
-0.000325295
0.000240198
-0.000495566
0.000380572
-0.000689956
0.000562335
-0.000902764
0.000786659
-0.00111562
-0.0013285
0.00105402
-1.07562e-06
2.91312e-05
8.01688e-06
-8.742e-06
3.45971e-05
-9.84632e-05
8.53479e-05
-0.000233847
0.00016595
-0.000405897
0.000281852
-0.000611468
0.000438183
-0.000846287
0.000639499
-0.00110408
0.000887722
-0.00136385
-0.00162423
0.00118346
5.37175e-07
2.8594e-05
1.36945e-05
-2.18993e-05
4.67749e-05
-0.000131544
0.000106519
-0.000293591
0.000198809
-0.000498187
0.000329386
-0.000742044
0.000503798
-0.0010207
0.000727153
-0.00132744
0.00100224
-0.00163893
-0.00195168
0.00132968
2.31672e-06
2.62773e-05
2.00396e-05
-3.96222e-05
6.03846e-05
-0.000171889
0.000130166
-0.000363373
0.000235472
-0.000603493
0.000382334
-0.000888906
0.000576713
-0.00121508
0.000824254
-0.00157498
0.00112871
-0.00194339
-0.00231351
0.00149054
4.27679e-06
2.20005e-05
2.70015e-05
-6.23469e-05
7.53126e-05
-0.0002202
0.000156084
-0.000444145
0.000275604
-0.000723013
0.000440179
-0.00105348
0.000656152
-0.00143105
0.000929642
-0.00184847
0.00126544
-0.00227919
-0.00271171
0.00166364
6.39516e-06
1.56054e-05
3.45245e-05
-9.04762e-05
9.1436e-05
-0.000277111
0.000184051
-0.00053676
0.000318841
-0.000857803
0.000502358
-0.001237
0.000741266
-0.00166996
0.00104206
-0.00214926
0.00141063
-0.00264776
-0.00314742
0.00184634
8.65538e-06
6.95001e-06
4.25499e-05
-0.000124371
0.000108623
-0.000343185
0.000213825
-0.000641961
0.000364789
-0.00100877
0.000568263
-0.00144047
0.00083115
-0.00193285
0.00116017
-0.00247828
0.0015623
-0.00304989
-0.00362092
0.0020358
1.1041e-05
-4.09099e-06
5.10162e-05
-0.000164346
0.000126736
-0.000418905
0.000245154
-0.000760379
0.000413028
-0.00117664
0.000637245
-0.00166469
0.000924839
-0.00222044
0.00128256
-0.002836
0.00171842
-0.00348576
-0.00413154
0.00222904
1.35354e-05
-1.76264e-05
5.98601e-05
-0.000210671
0.00014563
-0.000504675
0.000277766
-0.000892515
0.000463111
-0.00136199
0.000708617
-0.0019102
0.00102132
-0.00253314
0.00140779
-0.00322246
0.00187691
-0.00395488
-0.0046776
0.00242296
1.61219e-05
-3.37483e-05
6.90159e-05
-0.000263565
0.000165151
-0.00060081
0.000311378
-0.00103874
0.000514565
-0.00156517
0.000781651
-0.00217728
0.00111954
-0.00287103
0.00153438
-0.0036373
0.00203565
-0.00445615
-0.00525639
0.00261444
1.87837e-05
-5.2532e-05
7.84166e-05
-0.000323197
0.000185143
-0.000707536
0.000345692
-0.00119929
0.00056689
-0.00178637
0.000855575
-0.00246597
0.00121838
-0.00323384
0.00166086
-0.00407978
0.00219261
-0.0049879
-0.00586424
0.00280047
2.15039e-05
-7.40359e-05
8.79933e-05
-0.000389687
0.000205443
-0.000824985
0.000380396
-0.00137424
0.000619559
-0.00202554
0.000929573
-0.00277598
0.00131668
-0.00362095
0.00178575
-0.00454885
0.0023458
-0.00554796
-0.00649682
0.00297839
2.42657e-05
-9.83016e-05
9.76758e-05
-0.000463097
0.000225881
-0.00095319
0.000415165
-0.00156353
0.000672018
-0.00228239
0.00100278
-0.00310674
0.00141323
-0.0040314
0.00190763
-0.00504324
0.00249326
-0.00613359
-0.00714975
0.00314619
2.70516e-05
-0.000125353
0.000107392
-0.000543437
0.000246285
-0.00109208
0.000449663
-0.00176691
0.000723684
-0.00255641
0.00107428
-0.00345734
0.00150675
-0.00446388
0.0020252
-0.00556169
0.0026336
-0.006742
-0.00782094
0.00330479
2.98438e-05
-0.000155197
0.000117069
-0.000630662
0.000266477
-0.00124149
0.000483543
-0.00198397
0.00077395
-0.00284682
0.00114307
-0.00382645
0.00159573
-0.00491655
0.00213677
-0.00610272
0.00276949
-0.00737471
-0.00851061
0.00345916
3.24034e-05
-0.0001876
0.000126151
-0.00072441
0.000285531
-0.00140087
0.00051545
-0.00221389
0.000820956
-0.00315232
0.00120664
-0.00421214
0.00167662
-0.00538653
0.0022362
-0.0066623
0.00290011
-0.00803863
-0.00939795
0.00378745
3.51217e-05
-0.000222722
0.000135463
-0.00082475
0.00030467
-0.00157008
0.000546927
-0.00245615
0.000866438
-0.00347183
0.00126671
-0.00461241
0.00175056
-0.00587037
0.00232203
-0.00723377
0.00299005
-0.00870665
-0.0102233
0.00381536
3.77909e-05
-0.000260513
0.000144507
-0.000931466
0.000323052
-0.00174862
0.000576734
-0.00270983
0.000908703
-0.0038038
0.00132107
-0.00502478
0.00181474
-0.00636404
0.00239081
-0.00780983
0.00304869
-0.00936453
-0.0109944
0.00381983
4.03917e-05
-0.000300905
0.00015321
-0.00104428
0.000340502
-0.00193592
0.000604546
-0.00297387
0.000947232
-0.00414649
0.00136901
-0.00544656
0.00186847
-0.0068635
0.00244318
-0.00838455
0.00308533
-0.0100067
-0.0117151
0.00380603
4.29055e-05
-0.00034381
0.000161496
-0.00116288
0.000356848
-0.00213127
0.000630053
-0.00324708
0.000981554
-0.00449799
0.00140991
-0.00587492
0.00191126
-0.00736485
0.00247967
-0.00895295
0.00310238
-0.0106294
-0.0123896
0.00377693
4.53135e-05
-0.000389124
0.000169292
-0.00128685
0.000371923
-0.0023339
0.000652964
-0.00352812
0.00101124
-0.00485627
0.0014433
-0.00630697
0.00194277
-0.00786432
0.00250056
-0.00951074
0.00310068
-0.0112295
-0.0130212
0.00373219
4.75968e-05
-0.000436721
0.000176525
-0.00141578
0.000385566
-0.00254294
0.000673003
-0.00381556
0.00103592
-0.00521918
0.00146874
-0.0067398
0.00196271
-0.0083583
0.00250601
-0.010054
0.00308074
-0.0118043
-0.0136114
0.00367102
4.97361e-05
-0.000486457
0.000183122
-0.00154917
0.000397619
-0.00275744
0.000689914
-0.00410785
0.00105524
-0.00558451
0.0014859
-0.00717046
0.00197089
-0.00884329
0.00249617
-0.0105793
0.00304294
-0.012351
-0.0141613
0.0035928
5.17118e-05
-0.000538169
0.00018901
-0.00168647
0.000407933
-0.00297636
0.000703463
-0.00440338
0.00106891
-0.00594995
0.00149449
-0.00759604
0.00196718
-0.00931598
0.00247122
-0.0110834
0.00298764
-0.0128674
-0.0146709
0.00349727
5.3504e-05
-0.000591673
0.000194121
-0.00182708
0.000416367
-0.00319861
0.000713435
-0.00470045
0.00107668
-0.0063132
0.00149432
-0.00801368
0.00195157
-0.00977322
0.00243145
-0.0115632
0.00291536
-0.0133514
-0.0151401
0.00338457
5.50925e-05
-0.000646765
0.000198384
-0.00197038
0.000422787
-0.00342301
0.000719641
-0.0049973
0.00107836
-0.00667192
0.00148527
-0.00842059
0.00192413
-0.0102121
0.00237722
-0.0120163
0.00282673
-0.0138009
-0.0155686
0.00325521
5.64575e-05
-0.000703223
0.000201735
-0.00211565
0.000427072
-0.00364835
0.000721921
-0.00529215
0.0010738
-0.00702379
0.00146732
-0.00881411
0.00188507
-0.0106298
0.00230905
-0.0124403
0.00272256
-0.0142144
-0.0159561
0.00311
5.75793e-05
-0.000760802
0.000204112
-0.00226219
0.000429113
-0.00387335
0.000720146
-0.00558318
0.0010629
-0.00736655
0.00144049
-0.0091917
0.00183468
-0.011024
0.00222754
-0.0128332
0.00260378
-0.0145906
-0.0163023
0.00294998
5.8439e-05
-0.000819241
0.000205458
-0.0024092
0.000428818
-0.00409671
0.000714216
-0.00586858
0.00104564
-0.00769797
0.00140493
-0.00955099
0.00177335
-0.0113925
0.00213342
-0.0131932
0.00247145
-0.0149286
-0.0166072
0.00277636
5.90185e-05
-0.000878259
0.000205721
-0.00255591
0.000426109
-0.00431709
0.000704072
-0.00614655
0.00102204
-0.00801595
0.00136085
-0.00988979
0.00170156
-0.0117332
0.0020275
-0.0135192
0.0023267
-0.0152278
-0.0168709
0.00259046
5.9301e-05
-0.00093756
0.000204856
-0.00270146
0.000420927
-0.00453317
0.000689686
-0.0064153
0.000992192
-0.00831845
0.00130852
-0.0102061
0.00161989
-0.0120445
0.00191067
-0.0138099
0.00217071
-0.0154879
-0.0170939
0.00239366
5.92713e-05
-0.000996832
0.000202827
-0.00284502
0.000413235
-0.00474357
0.00067107
-0.00667314
0.000956225
-0.00860361
0.00124831
-0.0104982
0.00152897
-0.0123252
0.00178386
-0.0140648
0.0020047
-0.0157087
-0.0172765
0.00218733
5.89157e-05
-0.00105575
0.000199604
-0.00298571
0.000403014
-0.00494698
0.000648274
-0.0069184
0.000914336
-0.00886967
0.00118063
-0.0107645
0.0014295
-0.0125741
0.00164805
-0.0142834
0.00182986
-0.0158905
-0.0174195
0.00197283
5.8222e-05
-0.00111397
0.000195166
-0.00312265
0.000390267
-0.00514208
0.000621383
-0.00714952
0.000866767
-0.00911506
0.00110595
-0.0110037
0.0013222
-0.0127903
0.00150422
-0.0144654
0.0016474
-0.0160337
-0.0175236
0.0017515
5.71811e-05
-0.00117115
0.000189504
-0.00325497
0.00037502
-0.0053276
0.000590519
-0.00736501
0.000813809
-0.00933835
0.00102478
-0.0112146
0.00120783
-0.0129734
0.00135335
-0.0146109
0.00145848
-0.0161388
-0.0175897
0.00152458
5.49845e-05
-0.00122613
0.000181184
-0.00338117
0.000355413
-0.00550183
0.000553599
-0.0075632
0.000753345
-0.00953809
0.000935131
-0.0113964
0.00108466
-0.0131229
0.00119398
-0.0147203
0.0012619
-0.0162068
-0.0176189
0.00129114
5.31797e-05
-0.00127931
0.00017301
-0.003501
0.00033525
-0.00566407
0.00051521
-0.00774316
0.000690557
-0.00971344
0.000842599
-0.0115485
0.000958468
-0.0132388
0.00103193
-0.0147937
0.0010633
-0.0162381
-0.0176121
0.00105651
5.09979e-05
-0.00133031
0.000163625
-0.00361363
0.000312777
-0.00581322
0.000473392
-0.00790377
0.000623449
-0.0098635
0.000745285
-0.0116703
0.000827551
-0.013321
0.000865684
-0.0148318
0.000861396
-0.0162338
-0.0175703
0.000819588
4.84425e-05
-0.00137875
0.000153063
-0.00371825
0.000288106
-0.00594827
0.000428388
-0.00804405
0.000552441
-0.00998755
0.000643794
-0.0117617
0.000692677
-0.0133699
0.00069613
-0.0148353
0.000657113
-0.0161948
-0.0174945
0.000581309
4.55203e-05
-0.00142428
0.000141368
-0.0038141
0.000261365
-0.00606826
0.000380461
-0.00816315
0.000477961
-0.010085
0.000538731
-0.0118224
0.000554594
-0.0133858
0.000524104
-0.0148048
0.000451312
-0.016122
-0.0173857
0.000342514
4.22416e-05
-0.00146652
0.000128594
-0.00390045
0.000232698
-0.00617237
0.00032989
-0.00826034
0.000400452
-0.0101556
0.000430694
-0.0118527
0.000414026
-0.0133691
0.000350401
-0.0147412
0.000244795
-0.0160164
-0.0172448
0.000103919
3.862e-05
-0.00150514
0.000114804
-0.00397663
0.000202263
-0.00625983
0.000276966
-0.00833505
0.00032036
-0.010199
0.000320273
-0.0118526
0.00027166
-0.0133205
0.000175782
-0.0146453
3.84608e-05
-0.0158791
-0.0170728
-0.000133613
3.46722e-05
-0.00153981
0.000100068
-0.00404203
0.000170227
-0.00632999
0.000221991
-0.00838681
0.00023813
-0.0102151
0.000208048
-0.0118225
0.000128159
-0.0132406
5.09134e-07
-0.0145177
-0.000167477
-0.0157111
-0.0168707
-0.0003695
3.04178e-05
-0.00157023
8.44645e-05
-0.00409608
0.000136768
-0.00638229
0.000165272
-0.00841531
0.000154207
-0.0102041
9.45785e-05
-0.0117629
-1.5792e-05
-0.0131302
-0.000173551
-0.0143599
-0.000371907
-0.0155128
-0.0166394
-0.000603239
2.58791e-05
-0.00159611
6.80777e-05
-0.00413827
0.000102072
-0.00641628
0.000107118
-0.00842036
6.90258e-05
-0.010166
-1.95967e-05
-0.0116743
-0.000159632
-0.0129902
-0.000346959
-0.0141726
-0.000574382
-0.0152853
-0.0163795
-0.000834258
2.10806e-05
-0.00161719
5.09969e-05
-0.00416819
6.63286e-05
-0.00643161
4.78405e-05
-0.00840187
-1.6987e-05
-0.0101012
-0.000133962
-0.0115573
-0.000302782
-0.0128214
-0.000518704
-0.0139566
-0.000774344
-0.0150297
-0.0160918
-0.00106207
1.60493e-05
-0.00163324
3.33164e-05
-0.00418546
2.97319e-05
-0.00642803
-1.22537e-05
-0.00835989
-0.000103423
-0.01001
-0.000248023
-0.0114127
-0.000444691
-0.0126247
-0.000688229
-0.0137131
-0.000971253
-0.0147467
-0.0157769
-0.0012862
1.08145e-05
-0.00164405
1.51331e-05
-0.00418978
-7.52132e-06
-0.00640538
-7.28686e-05
-0.00829454
-0.000189883
-0.00989298
-0.000361311
-0.0112413
-0.000584846
-0.0124012
-0.000854996
-0.013443
-0.00116459
-0.0144371
-0.0154352
-0.00150624
5.4089e-06
-0.00164946
-3.45287e-06
-0.00418092
-4.52498e-05
-0.00636358
-0.000133706
-0.00820608
-0.000275988
-0.00975069
-0.000473385
-0.0110439
-0.000722761
-0.0121518
-0.00101849
-0.0131472
-0.00135384
-0.0141017
-0.0150673
-0.00172177
-2.4921e-07
-0.00164921
-2.23486e-05
-0.00415882
-8.32463e-05
-0.00630268
-0.000194484
-0.00809485
-0.00036138
-0.0095838
-0.000583835
-0.0108214
-0.000857984
-0.0118777
-0.0011782
-0.012827
-0.00153848
-0.0137415
-0.0146734
-0.00193237
-5.82808e-06
-0.00164338
-4.14373e-05
-0.00412321
-0.000121329
-0.00622279
-0.00025493
-0.00796124
-0.000445722
-0.00939301
-0.000692278
-0.0105748
-0.000990097
-0.0115798
-0.00133366
-0.0124835
-0.00171799
-0.0133571
-0.0142537
-0.00213763
-1.15721e-05
-0.00163181
-6.06293e-05
-0.00407415
-0.000159315
-0.0061241
-0.000314787
-0.00780577
-0.0005287
-0.00917909
-0.000798369
-0.0103052
-0.00111872
-0.0112595
-0.00148442
-0.0121178
-0.0018918
-0.0129497
-0.0138084
-0.00233712
-1.73613e-05
-0.00161445
-7.98244e-05
-0.00401169
-0.000197028
-0.0060069
-0.000373809
-0.00762899
-0.000610023
-0.00894288
-0.00090179
-0.0100134
-0.00124351
-0.0109178
-0.00163006
-0.0117312
-0.0020594
-0.0125204
-0.0133375
-0.00253035
-2.31624e-05
-0.00159129
-9.89248e-05
-0.00393592
-0.000234299
-0.00587153
-0.000431765
-0.00743152
-0.000689422
-0.00868522
-0.00100226
-0.00970057
-0.00136418
-0.0105558
-0.00177021
-0.0113252
-0.00221996
-0.0120707
-0.0128414
-0.00271605
-2.89411e-05
-0.00156234
-0.000117835
-0.00384703
-0.000270964
-0.0057184
-0.000488439
-0.00721405
-0.000766654
-0.00840701
-0.00109954
-0.00936768
-0.0014805
-0.0101749
-0.00190453
-0.0109011
-0.00237213
-0.0116031
-0.0123181
-0.00289541
-3.60448e-05
-0.0015263
-0.00013874
-0.00374433
-0.000309663
-0.00554748
-0.000546668
-0.00697704
-0.000844592
-0.00810908
-0.00119645
-0.00901582
-0.00159527
-0.00977606
-0.00203577
-0.0104606
-0.00251393
-0.0111249
-0.0118037
-0.00302832
-4.16869e-05
-0.00148461
-0.00015697
-0.00362905
-0.000344592
-0.00535985
-0.000600083
-0.00672155
-0.000916713
-0.00779245
-0.00128661
-0.00864593
-0.00170244
-0.00936023
-0.00215884
-0.0100042
-0.00265221
-0.0106315
-0.0112769
-0.00317904
-4.72472e-05
-0.00143737
-0.000174772
-0.00350153
-0.000378486
-0.00515614
-0.000651647
-0.00644839
-0.000986037
-0.00745806
-0.00137298
-0.00825898
-0.00180488
-0.00892832
-0.0022764
-0.00953274
-0.00278434
-0.0101236
-0.0107357
-0.0033255
-5.26909e-05
-0.00138468
-0.000192061
-0.00336216
-0.000411211
-0.00493699
-0.000701193
-0.00615841
-0.00105239
-0.00710687
-0.00145539
-0.00785598
-0.00190243
-0.00848128
-0.00238821
-0.00904696
-0.00290976
-0.00960205
-0.0101805
-0.00346493
-5.79866e-05
-0.00132669
-0.000208756
-0.00321139
-0.000442641
-0.0047031
-0.000748569
-0.00585248
-0.0011156
-0.00673983
-0.0015337
-0.00743788
-0.00199494
-0.00802004
-0.00249415
-0.00854775
-0.00302857
-0.00906763
-0.00961224
-0.00359687
-6.31043e-05
-0.00126358
-0.000224781
-0.00304971
-0.00047266
-0.00445522
-0.000793634
-0.00553151
-0.00117554
-0.00635792
-0.00160776
-0.00700566
-0.00208229
-0.00754551
-0.0025941
-0.00803595
-0.00314071
-0.00852101
-0.00903149
-0.00372147
-6.8015e-05
-0.00119557
-0.000240065
-0.00287766
-0.00050116
-0.00419413
-0.000836258
-0.00519641
-0.00123206
-0.00596212
-0.00167745
-0.00656028
-0.00216437
-0.00705859
-0.00268797
-0.00751234
-0.0032461
-0.00796288
-0.00843895
-0.00383864
-7.26914e-05
-0.00112288
-0.000254541
-0.00269581
-0.000528041
-0.00392063
-0.000876324
-0.00484813
-0.00128505
-0.0055534
-0.00174265
-0.00610267
-0.00224107
-0.00656017
-0.00277568
-0.00697774
-0.00334463
-0.00739393
-0.00783529
-0.00394829
-7.71081e-05
-0.00104577
-0.000268146
-0.00250477
-0.000553208
-0.00363557
-0.00091372
-0.00448762
-0.00133438
-0.00513273
-0.00180326
-0.0056338
-0.00231231
-0.00605112
-0.00285712
-0.00643292
-0.0034362
-0.00681485
-0.00722119
-0.0040503
-8.12414e-05
-0.000964528
-0.000280822
-0.00230519
-0.000576578
-0.00333981
-0.000948348
-0.00411585
-0.00137997
-0.00470111
-0.00185918
-0.00515459
-0.00237799
-0.00553231
-0.00293222
-0.00587869
-0.0035207
-0.00622637
-0.00659734
-0.00414455
-8.50698e-05
-0.000879459
-0.000292517
-0.00209775
-0.000598073
-0.00303425
-0.000980118
-0.0037338
-0.00142171
-0.00425951
-0.00191032
-0.00466598
-0.00243802
-0.00500461
-0.00300087
-0.00531584
-0.00359801
-0.00562923
-0.00596446
-0.00423089
-8.85736e-05
-0.000790885
-0.000303183
-0.00188314
-0.000617622
-0.00271982
-0.00100895
-0.00334248
-0.00145953
-0.00380893
-0.0019566
-0.00416891
-0.00249233
-0.00446889
-0.00306299
-0.00474518
-0.00366802
-0.0050242
-0.00532333
-0.00430916
-9.17353e-05
-0.00069915
-0.000312778
-0.00166209
-0.000635163
-0.00239743
-0.00103476
-0.00294288
-0.00149334
-0.00335035
-0.00199795
-0.00366431
-0.00254082
-0.00392601
-0.00311847
-0.00416753
-0.00373061
-0.00441206
-0.00467473
-0.00437921
-9.45391e-05
-0.00060461
-0.000321262
-0.00143537
-0.00065064
-0.00206805
-0.0010575
-0.00253602
-0.00152309
-0.00288476
-0.00203429
-0.00315311
-0.00258343
-0.00337687
-0.00316724
-0.00358372
-0.00378566
-0.00379364
-0.0040195
-0.00444088
-9.69714e-05
-0.000507639
-0.000328603
-0.00120374
-0.000664005
-0.00173265
-0.00107711
-0.00212291
-0.0015487
-0.00241317
-0.00206556
-0.00263625
-0.0026201
-0.00282233
-0.00320921
-0.00299461
-0.00383307
-0.00316979
-0.00335853
-0.00449404
-9.90206e-05
-0.000408618
-0.000334772
-0.00096799
-0.000675215
-0.00139221
-0.00109353
-0.0017046
-0.00157014
-0.00193656
-0.00209172
-0.00211467
-0.00265076
-0.00226328
-0.00324432
-0.00240105
-0.00387274
-0.00254137
-0.00269271
-0.00453856
-0.000100677
-0.000307941
-0.000339745
-0.000728922
-0.000684237
-0.00104771
-0.00110672
-0.00128211
-0.00158735
-0.00145593
-0.00211271
-0.00158931
-0.00267536
-0.00170063
-0.00327249
-0.00180392
-0.00390459
-0.00190926
-0.00202298
-0.00457432
-0.000101933
-0.000206008
-0.000343504
-0.000487351
-0.000691042
-0.000700177
-0.00111667
-0.000856489
-0.0016003
-0.000972295
-0.0021285
-0.00106112
-0.00269387
-0.00113526
-0.00329368
-0.00120411
-0.00392856
-0.00127439
-0.0013503
-0.00460124
-0.000102783
-0.000103225
-0.000346034
-0.000244101
-0.00069561
-0.000350601
-0.00112333
-0.000428769
-0.00160897
-0.00048665
-0.00213906
-0.000531031
-0.00270624
-0.000568081
-0.00330785
-0.000602504
-0.00394458
-0.000637658
-0.000675644
-0.00461923
-0.000103225
-2.46877e-12
-0.000347326
-5.82861e-12
-0.000697926
-8.40644e-12
-0.0011267
-1.05727e-11
-0.00161335
-1.25779e-11
-0.00214438
-1.46186e-11
-0.00271246
-1.66463e-11
-0.00331496
-1.85705e-11
-0.00395262
-2.01639e-11
-2.12159e-11
-0.00462826
-0.000103225
0.000103225
-0.000347326
0.000244101
-0.000697926
0.000350601
-0.0011267
0.000428769
-0.00161335
0.00048665
-0.00214438
0.000531031
-0.00271246
0.000568081
-0.00331496
0.000602504
-0.00395262
0.000637657
0.000675644
-0.00462826
-0.000102783
0.000206008
-0.000346034
0.000487351
-0.00069561
0.000700177
-0.00112333
0.000856489
-0.00160897
0.000972295
-0.00213906
0.00106112
-0.00270624
0.00113526
-0.00330785
0.00120411
-0.00394458
0.00127439
0.0013503
-0.00461923
-0.000101933
0.000307941
-0.000343504
0.000728922
-0.000691042
0.00104771
-0.00111667
0.00128211
-0.0016003
0.00145593
-0.0021285
0.00158931
-0.00269387
0.00170063
-0.00329368
0.00180392
-0.00392856
0.00190926
0.00202298
-0.00460124
-0.000100677
0.000408618
-0.000339745
0.00096799
-0.000684237
0.00139221
-0.00110672
0.0017046
-0.00158735
0.00193656
-0.00211271
0.00211467
-0.00267536
0.00226328
-0.00327249
0.00240105
-0.00390459
0.00254137
0.00269271
-0.00457432
-9.90206e-05
0.000507639
-0.000334772
0.00120374
-0.000675215
0.00173265
-0.00109353
0.00212291
-0.00157014
0.00241317
-0.00209172
0.00263625
-0.00265076
0.00282233
-0.00324432
0.00299461
-0.00387274
0.00316979
0.00335853
-0.00453856
-9.69714e-05
0.00060461
-0.000328603
0.00143537
-0.000664005
0.00206805
-0.00107711
0.00253602
-0.0015487
0.00288476
-0.00206556
0.00315311
-0.0026201
0.00337687
-0.00320921
0.00358372
-0.00383307
0.00379364
0.0040195
-0.00449404
-9.45391e-05
0.00069915
-0.000321262
0.00166209
-0.00065064
0.00239743
-0.0010575
0.00294288
-0.00152309
0.00335035
-0.00203429
0.00366431
-0.00258343
0.00392601
-0.00316724
0.00416753
-0.00378566
0.00441206
0.00467473
-0.00444088
-9.17353e-05
0.000790885
-0.000312778
0.00188314
-0.000635163
0.00271982
-0.00103476
0.00334248
-0.00149334
0.00380893
-0.00199795
0.00416891
-0.00254082
0.00446889
-0.00311847
0.00474518
-0.00373061
0.0050242
0.00532333
-0.00437921
-8.85736e-05
0.000879458
-0.000303183
0.00209775
-0.000617622
0.00303425
-0.00100895
0.0037338
-0.00145953
0.00425951
-0.0019566
0.00466598
-0.00249233
0.00500461
-0.00306299
0.00531584
-0.00366802
0.00562923
0.00596446
-0.00430916
-8.50698e-05
0.000964528
-0.000292517
0.00230519
-0.000598073
0.00333981
-0.000980118
0.00411585
-0.00142171
0.00470111
-0.00191032
0.00515459
-0.00243802
0.00553231
-0.00300087
0.00587869
-0.00359801
0.00622637
0.00659734
-0.00423089
-8.12414e-05
0.00104577
-0.000280822
0.00250477
-0.000576578
0.00363557
-0.000948348
0.00448762
-0.00137997
0.00513273
-0.00185918
0.0056338
-0.00237799
0.00605112
-0.00293222
0.00643292
-0.0035207
0.00681485
0.00722119
-0.00414455
-7.71081e-05
0.00112288
-0.000268146
0.00269581
-0.000553208
0.00392063
-0.00091372
0.00484813
-0.00133438
0.00555339
-0.00180326
0.00610267
-0.00231231
0.00656017
-0.00285712
0.00697774
-0.0034362
0.00739393
0.00783529
-0.0040503
-7.26914e-05
0.00119557
-0.000254541
0.00287766
-0.000528041
0.00419413
-0.000876324
0.00519641
-0.00128505
0.00596212
-0.00174265
0.00656028
-0.00224107
0.00705859
-0.00277568
0.00751234
-0.00334463
0.00796288
0.00843895
-0.00394829
-6.8015e-05
0.00126358
-0.000240065
0.00304971
-0.00050116
0.00445522
-0.000836258
0.00553151
-0.00123206
0.00635792
-0.00167745
0.00700566
-0.00216437
0.00754551
-0.00268797
0.00803595
-0.0032461
0.00852101
0.00903149
-0.00383864
-6.31043e-05
0.00132669
-0.000224781
0.00321139
-0.00047266
0.0047031
-0.000793634
0.00585248
-0.00117554
0.00673983
-0.00160776
0.00743788
-0.00208229
0.00802004
-0.0025941
0.00854775
-0.00314071
0.00906763
0.00961224
-0.00372147
-5.79866e-05
0.00138468
-0.000208756
0.00336216
-0.000442641
0.00493699
-0.000748569
0.00615841
-0.0011156
0.00710687
-0.0015337
0.00785598
-0.00199494
0.00848128
-0.00249415
0.00904696
-0.00302857
0.00960205
0.0101805
-0.00359687
-5.26909e-05
0.00143737
-0.000192061
0.00350153
-0.000411211
0.00515614
-0.000701193
0.00644839
-0.00105239
0.00745806
-0.00145539
0.00825898
-0.00190243
0.00892832
-0.00238821
0.00953274
-0.00290976
0.0101236
0.0107357
-0.00346493
-4.72472e-05
0.00148461
-0.000174772
0.00362905
-0.000378486
0.00535985
-0.000651647
0.00672155
-0.000986037
0.00779245
-0.00137298
0.00864593
-0.00180488
0.00936023
-0.0022764
0.0100042
-0.00278434
0.0106315
0.0112769
-0.0033255
-4.16869e-05
0.0015263
-0.00015697
0.00374433
-0.000344592
0.00554748
-0.000600083
0.00697704
-0.000916713
0.00810908
-0.00128661
0.00901582
-0.00170244
0.00977606
-0.00215884
0.0104606
-0.00265221
0.0111249
0.0118037
-0.00317904
-3.60448e-05
0.00156234
-0.00013874
0.00384703
-0.000309663
0.0057184
-0.000546668
0.00721405
-0.000844592
0.00840701
-0.00119645
0.00936768
-0.00159527
0.0101749
-0.00203577
0.0109011
-0.00251393
0.0116031
0.0123181
-0.00302832
-2.89411e-05
0.00159129
-0.000117835
0.00393592
-0.000270964
0.00587153
-0.000488439
0.00743152
-0.000766654
0.00868522
-0.00109954
0.00970057
-0.0014805
0.0105558
-0.00190453
0.0113252
-0.00237213
0.0120707
0.0128414
-0.00289541
-2.31624e-05
0.00161445
-9.89248e-05
0.00401169
-0.000234299
0.0060069
-0.000431765
0.00762899
-0.000689422
0.00894288
-0.00100226
0.0100134
-0.00136418
0.0109178
-0.00177021
0.0117312
-0.00221996
0.0125204
0.0133375
-0.00271605
-1.73613e-05
0.00163181
-7.98244e-05
0.00407415
-0.000197028
0.0061241
-0.000373809
0.00780577
-0.000610023
0.00917909
-0.00090179
0.0103052
-0.00124351
0.0112595
-0.00163006
0.0121178
-0.0020594
0.0129497
0.0138084
-0.00253035
-1.15721e-05
0.00164338
-6.06293e-05
0.00412321
-0.000159315
0.00622279
-0.000314787
0.00796124
-0.0005287
0.00939301
-0.000798369
0.0105748
-0.00111872
0.0115798
-0.00148442
0.0124835
-0.0018918
0.0133571
0.0142537
-0.00233712
-5.82808e-06
0.00164921
-4.14373e-05
0.00415882
-0.000121329
0.00630268
-0.00025493
0.00809485
-0.000445722
0.0095838
-0.000692278
0.0108214
-0.000990097
0.0118777
-0.00133366
0.012827
-0.00171799
0.0137415
0.0146734
-0.00213763
-2.4921e-07
0.00164946
-2.23486e-05
0.00418092
-8.32463e-05
0.00636358
-0.000194484
0.00820608
-0.00036138
0.00975069
-0.000583835
0.0110439
-0.000857984
0.0121518
-0.0011782
0.0131472
-0.00153848
0.0141017
0.0150673
-0.00193237
5.4089e-06
0.00164405
-3.45288e-06
0.00418978
-4.52498e-05
0.00640538
-0.000133706
0.00829454
-0.000275988
0.00989298
-0.000473385
0.0112413
-0.000722761
0.0124012
-0.00101849
0.013443
-0.00135384
0.0144371
0.0154352
-0.00172177
1.08145e-05
0.00163324
1.51331e-05
0.00418546
-7.52132e-06
0.00642803
-7.28686e-05
0.00835989
-0.000189883
0.01001
-0.000361311
0.0114127
-0.000584846
0.0126247
-0.000854996
0.0137131
-0.00116459
0.0147467
0.0157769
-0.00150624
1.60493e-05
0.00161719
3.33164e-05
0.00416819
2.97319e-05
0.00643161
-1.22537e-05
0.00840187
-0.000103423
0.0101012
-0.000248023
0.0115573
-0.000444691
0.0128214
-0.000688229
0.0139566
-0.000971253
0.0150297
0.0160918
-0.0012862
2.10806e-05
0.00159611
5.09969e-05
0.00413827
6.63286e-05
0.00641628
4.78405e-05
0.00842036
-1.6987e-05
0.010166
-0.000133962
0.0116743
-0.000302782
0.0129902
-0.000518704
0.0141726
-0.000774344
0.0152853
0.0163795
-0.00106207
2.58791e-05
0.00157023
6.80777e-05
0.00409608
0.000102072
0.00638229
0.000107118
0.00841531
6.90258e-05
0.0102041
-1.95967e-05
0.0117629
-0.000159632
0.0131302
-0.000346959
0.0143599
-0.000574382
0.0155128
0.0166394
-0.000834258
3.04178e-05
0.00153981
8.44645e-05
0.00404203
0.000136768
0.00632999
0.000165272
0.00838681
0.000154207
0.0102151
9.45785e-05
0.0118225
-1.5792e-05
0.0132406
-0.000173551
0.0145177
-0.000371907
0.0157111
0.0168707
-0.000603239
3.46722e-05
0.00150514
0.000100068
0.00397663
0.000170227
0.00625983
0.000221991
0.00833505
0.00023813
0.010199
0.000208048
0.0118526
0.000128159
0.0133205
5.09131e-07
0.0146453
-0.000167477
0.0158791
0.0170728
-0.0003695
3.862e-05
0.00146652
0.000114804
0.00390045
0.000202263
0.00617237
0.000276966
0.00826034
0.00032036
0.0101556
0.000320273
0.0118527
0.00027166
0.0133691
0.000175782
0.0147412
3.84608e-05
0.0160164
0.0172448
-0.000133613
4.22416e-05
0.00142428
0.000128594
0.0038141
0.000232698
0.00606826
0.00032989
0.00816315
0.000400452
0.010085
0.000430693
0.0118224
0.000414026
0.0133858
0.000350401
0.0148048
0.000244795
0.016122
0.0173857
0.000103919
4.55203e-05
0.00137875
0.000141368
0.00371825
0.000261365
0.00594827
0.000380461
0.00804405
0.000477961
0.00998755
0.000538731
0.0117617
0.000554594
0.0133699
0.000524104
0.0148353
0.000451312
0.0161948
0.0174945
0.000342514
4.84425e-05
0.00133031
0.000153063
0.00361363
0.000288106
0.00581322
0.000428388
0.00790377
0.000552441
0.0098635
0.000643794
0.0116703
0.000692677
0.013321
0.00069613
0.0148318
0.000657113
0.0162338
0.0175703
0.000581309
5.09979e-05
0.00127931
0.000163625
0.003501
0.000312777
0.00566407
0.000473392
0.00774316
0.000623449
0.00971344
0.000745285
0.0115485
0.000827551
0.0132388
0.000865684
0.0147937
0.000861396
0.0162381
0.0176121
0.000819588
5.31797e-05
0.00122613
0.00017301
0.00338117
0.00033525
0.00550183
0.00051521
0.0075632
0.000690557
0.00953809
0.000842599
0.0113964
0.000958468
0.0131229
0.00103193
0.0147203
0.0010633
0.0162068
0.0176189
0.00105651
5.49845e-05
0.00117115
0.000181184
0.00325497
0.000355413
0.0053276
0.000553599
0.00736501
0.000753345
0.00933835
0.000935131
0.0112146
0.00108466
0.0129734
0.00119398
0.0146109
0.0012619
0.0161388
0.0175897
0.00129114
5.71811e-05
0.00111397
0.000189504
0.00312265
0.00037502
0.00514208
0.000590519
0.00714952
0.000813809
0.00911506
0.00102478
0.0110037
0.00120783
0.0127903
0.00135335
0.0144654
0.00145848
0.0160337
0.0175236
0.00152458
5.8222e-05
0.00105575
0.000195166
0.00298571
0.000390267
0.00494698
0.000621383
0.0069184
0.000866767
0.00886967
0.00110595
0.0107645
0.0013222
0.0125741
0.00150422
0.0142834
0.0016474
0.0158905
0.0174195
0.0017515
5.89157e-05
0.000996832
0.000199604
0.00284502
0.000403014
0.00474357
0.000648274
0.00667314
0.000914336
0.00860361
0.00118063
0.0104982
0.0014295
0.0123252
0.00164805
0.0140648
0.00182986
0.0157087
0.0172765
0.00197283
5.92713e-05
0.00093756
0.000202827
0.00270146
0.000413235
0.00453317
0.00067107
0.0064153
0.000956225
0.00831845
0.00124831
0.0102061
0.00152897
0.0120445
0.00178386
0.0138099
0.0020047
0.0154879
0.0170939
0.00218733
5.9301e-05
0.000878259
0.000204856
0.00255591
0.000420927
0.00431709
0.000689686
0.00614655
0.000992192
0.00801595
0.00130852
0.00988979
0.00161989