/*--------------------------------*- C++ -*----------------------------------*\
  =========                 |
  \\      /  F ield         | OpenFOAM: The Open Source CFD Toolbox
   \\    /   O peration     | Website:  https://openfoam.org
    \\  /    A nd           | Version:  7
     \\/     M anipulation  |
\*---------------------------------------------------------------------------*/
FoamFile
{
    version     2.0;
    format      ascii;
    class       volVectorField;
    location    "20";
    object      U;
}
// * * * * * * * * * * * * * * * * * * * * * * * * * * * * * * * * * * * * * //

dimensions      [0 1 -1 0 0 0 0];

internalField   nonuniform List<vector> 
10500
(
(-0.00171987 0.000412035 -3.02164e-21)
(-0.00400268 0.000175906 5.77569e-21)
(-0.00358371 -0.000445634 -2.39276e-20)
(0.00147018 -0.00125343 -1.30796e-20)
(0.0111516 -0.00209722 -2.83828e-20)
(0.0251723 -0.00290972 -6.86872e-21)
(0.0429382 -0.00363611 -1.10641e-20)
(0.0638751 -0.00422441 -2.76584e-20)
(0.0864068 -0.00457913 7.28015e-21)
(0.110825 -0.00473559 2.98293e-21)
(-0.00174952 0.00121836 -5.25248e-22)
(-0.00383063 0.000496901 -8.62683e-21)
(-0.0030184 -0.00136729 -1.5263e-20)
(0.00251072 -0.00378412 3.06697e-20)
(0.0127282 -0.00630493 3.7662e-20)
(0.0273205 -0.00872983 1.27749e-21)
(0.0456819 -0.0108957 1.34256e-21)
(0.0672436 -0.0126466 3.29676e-20)
(0.0903556 -0.0136998 -1.64482e-20)
(0.115588 -0.0141428 -5.36294e-20)
(-0.00180371 0.00197184 3.37449e-20)
(-0.00347705 0.000725724 -7.24059e-20)
(-0.00187763 -0.00238023 2.63454e-21)
(0.00460082 -0.00638681 3.64578e-21)
(0.0158879 -0.0105531 -1.55794e-20)
(0.0316194 -0.0145527 -4.31627e-20)
(0.0511672 -0.0181179 9.76302e-20)
(0.073972 -0.0209898 -1.11518e-20)
(0.0982371 -0.0227088 8.97436e-21)
(0.125084 -0.023359 -8.44085e-21)
(-0.00187237 0.00263867 -7.70034e-20)
(-0.00292317 0.000803319 1.4782e-19)
(-0.000141372 -0.00354257 -7.74362e-20)
(0.00775831 -0.00910677 2.50319e-20)
(0.0206434 -0.0148659 -8.25638e-20)
(0.0380745 -0.0203774 1.69376e-19)
(0.0593892 -0.0252756 -3.22473e-20)
(0.0840428 -0.0291989 2.58104e-20)
(0.110018 -0.0315302 8.79111e-20)
(0.139258 -0.0322564 -4.377e-20)
(-0.00194068 0.00318709 7.92226e-20)
(-0.00214131 0.000674431 -9.65702e-20)
(0.00221997 -0.00490782 -7.85972e-20)
(0.0120094 -0.0119844 -5.15296e-20)
(0.0270132 -0.0192629 2.74023e-20)
(0.0466929 -0.0261986 -2.28375e-19)
(0.0703403 -0.0323368 -1.54457e-19)
(0.097429 -0.0372149 -5.80817e-20)
(0.12565 -0.0400859 -1.13058e-19)
(0.158024 -0.0407057 6.69824e-20)
(-0.00198938 0.00358802 1.17914e-19)
(-0.00109541 0.000289152 1.41243e-20)
(0.00524497 -0.00652342 1.29141e-19)
(0.0173881 -0.0150535 -5.79023e-21)
(0.0350211 -0.023757 2.19464e-19)
(0.0574835 -0.0320045 1.17122e-19)
(0.0840094 -0.0392639 -1.29542e-19)
(0.114093 -0.0449733 2.19172e-19)
(0.145065 -0.0482939 1.19805e-19)
(0.181263 -0.048577 4.24322e-20)
(-0.00199498 0.00381534 -1.17026e-19)
(0.00025816 -0.000395616 1.30432e-19)
(0.00898029 -0.00842895 -1.24083e-19)
(0.0239355 -0.0183399 -2.41823e-19)
(0.0446952 -0.0283531 -3.97238e-19)
(0.0704555 -0.0377756 -7.90885e-20)
(0.100381 -0.0460119 1.76031e-19)
(0.133987 -0.0524029 -1.35407e-20)
(0.168178 -0.056068 -2.70701e-19)
(0.208824 -0.0557395 6.20161e-20)
(-0.00193004 0.00384648 -9.94071e-20)
(0.00196991 -0.00141485 -1.65228e-19)
(0.0134796 -0.0106546 5.42391e-21)
(0.0316983 -0.0218594 2.02752e-19)
(0.0560668 -0.0330467 4.37913e-19)
(0.0856175 -0.0434833 2.42423e-19)
(0.119433 -0.0525268 -2.20552e-20)
(0.157047 -0.0594248 -4.64191e-19)
(0.194883 -0.0633167 1.7558e-19)
(0.240523 -0.0620622 -1.80722e-19)
(-0.00176411 0.00366478 -1.26298e-19)
(0.00409666 -0.00279575 6.17411e-20)
(0.0188025 -0.0132203 2.89827e-19)
(0.0407279 -0.025617 -3.04252e-20)
(0.069169 -0.0378222 -1.44304e-19)
(0.102976 -0.0490888 9.35137e-20)
(0.141138 -0.0587456 1.489e-19)
(0.183199 -0.0659516 3.19865e-19)
(0.225055 -0.0699421 9.32492e-21)
(0.276134 -0.067415 1.81626e-19)
(-0.00146491 0.00325851 6.89543e-20)
(0.0066996 -0.00455611 -1.45028e-19)
(0.0250132 -0.0161339 -3.61448e-20)
(0.0510786 -0.0296053 2.01217e-19)
(0.0840353 -0.0426524 2.0902e-19)
(0.122534 -0.0545422 -4.87325e-19)
(0.165457 -0.0645944 -2.4129e-19)
(0.212348 -0.0718868 -8.2064e-20)
(0.258546 -0.0758393 3.09701e-20)
(0.315393 -0.07167 5.60844e-20)
(-0.000997689 0.0026199 3.47687e-20)
(0.00984307 -0.00670211 -1.27157e-19)
(0.0321792 -0.0193911 -1.78433e-19)
(0.0628061 -0.0338037 -1.23557e-19)
(0.100697 -0.0474971 -3.81788e-19)
(0.144288 -0.059782 3.40558e-19)
(0.192343 -0.0699894 2.72422e-19)
(0.244384 -0.0771257 -3.41739e-19)
(0.295187 -0.0808959 -2.00609e-21)
(0.357994 -0.0747026 -8.13997e-21)
(-0.000326342 0.00174685 -6.98053e-20)
(0.0135936 -0.00922904 2.23371e-19)
(0.0403688 -0.0229738 8.26139e-20)
(0.0759651 -0.0381777 -4.80396e-21)
(0.119182 -0.0523033 2.46124e-19)
(0.168226 -0.0647354 -4.09323e-19)
(0.221734 -0.0748368 2.56655e-19)
(0.279173 -0.0815556 2.39753e-19)
(0.334785 -0.084991 1.10058e-19)
(0.403586 -0.0763938 -9.4019e-20)
(0.00058584 0.000642965 -2.07485e-19)
(0.0180186 -0.0121209 -2.22416e-19)
(0.0496499 -0.0268505 -4.99986e-20)
(0.0906075 -0.0426788 3.54748e-19)
(0.139511 -0.0570048 -1.14047e-19)
(0.194327 -0.0693186 4.61306e-19)
(0.253553 -0.0790339 -1.32625e-19)
(0.316562 -0.0850587 -1.01127e-19)
(0.377122 -0.0879948 -8.87127e-20)
(0.451771 -0.0766314 5.55975e-19)
(0.00177553 -0.000682468 7.24322e-19)
(0.0231843 -0.0153502 3.74951e-19)
(0.0600877 -0.0309756 -2.82574e-19)
(0.10678 -0.0472439 -2.92474e-19)
(0.161697 -0.0615226 2.09535e-19)
(0.222553 -0.0734381 -3.56895e-19)
(0.287702 -0.0824717 5.14738e-20)
(0.356372 -0.0875151 1.10105e-19)
(0.421962 -0.089768 4.02788e-20)
(0.502106 -0.0753131 -1.63874e-19)
(0.00327869 -0.00221462 -7.68084e-19)
(0.0291549 -0.0188777 1.52367e-20)
(0.0717427 -0.0352898 1.13556e-20)
(0.12452 -0.0517963 -5.43565e-20)
(0.185738 -0.0657655 -4.63981e-19)
(0.252853 -0.0769919 -2.09805e-20)
(0.324065 -0.0850373 -1.02233e-19)
(0.398399 -0.0888078 1.94459e-19)
(0.469049 -0.0901631 -2.9874e-19)
(0.5541 -0.0723562 -4.26609e-20)
(0.00512989 -0.00393318 3.817e-19)
(0.0359902 -0.022653 -2.61457e-21)
(0.0846683 -0.0397199 2.1981e-19)
(0.143856 -0.0562455 7.7051e-20)
(0.21162 -0.0696316 -3.72563e-19)
(0.285154 -0.0798723 4.64533e-19)
(0.3625 -0.0866183 -4.14869e-19)
(0.442414 -0.0888295 1.60676e-19)
(0.518112 -0.0890279 2.61709e-19)
(0.607228 -0.0677121 -2.05198e-19)
(0.00736167 -0.0058126 -2.13119e-19)
(0.0437447 -0.0266146 -6.70688e-20)
(0.098909 -0.0441804 -4.00504e-19)
(0.164803 -0.0604891 -2.26171e-19)
(0.23931 -0.0730097 4.04226e-19)
(0.319358 -0.0819677 -7.57126e-19)
(0.402836 -0.0871072 3.51101e-19)
(0.488163 -0.0874915 -4.53529e-19)
(0.568864 -0.0861984 -6.02492e-19)
(0.660908 -0.0613268 2.67021e-19)
(0.0100041 -0.0078227 3.53649e-19)
(0.0524658 -0.0306913 -4.01761e-19)
(0.114498 -0.048574 9.93729e-20)
(0.18736 -0.0644135 4.39093e-19)
(0.268753 -0.0757811 2.41178e-19)
(0.355346 -0.0831659 -5.30012e-21)
(0.444872 -0.0864087 -1.04504e-19)
(0.535372 -0.0847332 1.32626e-19)
(0.620989 -0.0814605 5.40033e-19)
(0.714414 -0.0530144 -5.65412e-19)
(0.0130843 -0.00992922 1.97097e-19)
(0.0621929 -0.0348029 1.27244e-19)
(0.131456 -0.0527933 4.30954e-19)
(0.211509 -0.0678965 -1.70318e-19)
(0.299872 -0.0778221 -5.50889e-19)
(0.392965 -0.0833577 2.18023e-19)
(0.488378 -0.0844489 -2.89447e-19)
(0.58377 -0.080537 2.02386e-19)
(0.674219 -0.0745595 -3.35959e-19)
(0.766906 -0.0427367 6.29868e-19)
(0.0166234 -0.0120914 2.06863e-19)
(0.072953 -0.0388585 2.80562e-19)
(0.149787 -0.0567193 -8.13396e-20)
(0.237207 -0.0708058 6.73703e-20)
(0.332563 -0.0790034 6.57335e-19)
(0.432031 -0.0824361 -1.41901e-19)
(0.533077 -0.081179 6.13018e-19)
(0.633082 -0.0749448 -3.224e-19)
(0.72852 -0.0655212 -2.93349e-19)
(0.81884 -0.0323224 -3.98061e-19)
(0.0206287 -0.0142561 -6.7048e-19)
(0.0847516 -0.0427504 1.70571e-19)
(0.169467 -0.0602162 -4.11545e-19)
(0.264384 -0.0729949 2.36768e-20)
(0.366684 -0.0791861 -6.70474e-19)
(0.472314 -0.0802921 8.64388e-20)
(0.578627 -0.0765626 -1.36861e-19)
(0.682865 -0.0680692 2.78992e-19)
(0.783592 -0.0552142 3.29639e-19)
(0.875391 -0.0261844 5.2205e-19)
(0.0251089 -0.0163743 4.00306e-19)
(0.0975874 -0.0463734 -8.21363e-20)
(0.190459 -0.0631525 3.90224e-19)
(0.292949 -0.0743236 -8.81024e-20)
(0.402071 -0.0782404 3.78288e-19)
(0.513553 -0.0768252 4.75195e-19)
(0.624625 -0.070559 -2.50233e-19)
(0.732384 -0.0600473 -1.50427e-19)
(0.83679 -0.0451768 3.61614e-19)
(0.929122 -0.0253426 -3.33098e-19)
(0.0300804 -0.0184074 -4.64523e-19)
(0.111463 -0.0496333 4.76612e-19)
(0.212727 -0.0654072 -5.5261e-19)
(0.322805 -0.074664 3.99938e-19)
(0.438551 -0.0760499 -3.93472e-19)
(0.55548 -0.0719445 -5.24573e-19)
(0.67068 -0.0631059 2.3015e-19)
(0.781059 -0.050744 8.24375e-20)
(0.887064 -0.0344738 1.58882e-19)
(0.978329 -0.0211843 2.53828e-19)
(0.0355463 -0.0203068 2.34288e-19)
(0.126357 -0.0524233 -4.84853e-19)
(0.236204 -0.0668486 4.5552e-19)
(0.353823 -0.0738813 -5.98113e-19)
(0.47592 -0.0724959 4.31527e-19)
(0.597809 -0.0655583 5.77207e-19)
(0.716413 -0.0541308 1.3667e-19)
(0.828456 -0.0399904 -3.32359e-19)
(0.934274 -0.022532 -3.77091e-19)
(1.02318 -0.0130972 1.50792e-19)
(0.0415008 -0.0220194 1.22617e-19)
(0.14223 -0.0546327 -5.53039e-19)
(0.260799 -0.0673446 3.35385e-19)
(0.38585 -0.0718449 2.38153e-19)
(0.513952 -0.0674693 4.722e-19)
(0.640241 -0.0575898 -5.85954e-19)
(0.761471 -0.0435857 -3.9438e-20)
(0.874222 -0.0277199 -1.05387e-19)
(0.978474 -0.0092553 4.08706e-20)
(1.06416 -0.00194584 -3.13267e-19)
(0.0479318 -0.0234924 -3.31891e-19)
(0.15903 -0.0561523 4.95948e-19)
(0.286404 -0.0667683 -4.59705e-19)
(0.418712 -0.0684349 1.39777e-19)
(0.552405 -0.0608775 -1.08758e-18)
(0.682473 -0.0479853 -3.21084e-20)
(0.805518 -0.0314578 1.61351e-19)
(0.918049 -0.01395 1.93908e-19)
(1.01965 0.00530842 2.55908e-19)
(1.10144 0.0116056 1.44631e-19)
(0.0548212 -0.0246728 -3.04019e-19)
(0.176688 -0.0568759 -4.16331e-19)
(0.31289 -0.065001 3.15967e-19)
(0.452216 -0.063545 -1.17129e-19)
(0.591023 -0.0526478 1.76671e-19)
(0.724199 -0.0367177 3.45402e-19)
(0.848237 -0.0177687 2.31703e-20)
(0.959662 0.00124574 2.47559e-19)
(1.05773 0.0210488 -3.87233e-19)
(1.13507 0.0269832 9.30682e-20)
(0.0621438 -0.0255088 6.25935e-19)
(0.19512 -0.0567024 3.09733e-19)
(0.34011 -0.0619343 8.03121e-22)
(0.486149 -0.0570856 8.81291e-20)
(0.629537 -0.0427302 3.99427e-19)
(0.765116 -0.023788 -4.26201e-19)
(0.889329 -0.00257301 -3.55731e-19)
(0.998816 0.0177518 -3.14574e-19)
(1.09264 0.0378082 3.83205e-19)
(1.16505 0.0436696 -5.54856e-19)
(0.0698677 -0.0259501 1.31412e-19)
(0.214228 -0.0555372 3.13943e-19)
(0.3679 -0.0574726 -1.38226e-19)
(0.520285 -0.0489864 -5.31178e-20)
(0.66767 -0.0310992 -2.01839e-19)
(0.804922 -0.00922558 -1.3634e-19)
(0.928511 0.0140443 1.53081e-19)
(1.0353 0.0354218 -1.5896e-19)
(1.12431 0.0554017 -2.04345e-19)
(1.19141 0.0612178 2.09819e-19)
(0.077954 -0.025949 -4.38732e-19)
(0.2339 -0.0532944 1.79102e-19)
(0.396078 -0.0515356 -2.79502e-19)
(0.554383 -0.0391984 1.0153e-19)
(0.705143 -0.0177555 4.73488e-19)
(0.843329 0.00691215 2.15818e-19)
(0.965529 0.0319716 -2.11186e-19)
(1.06893 0.0540885 2.89047e-19)
(1.15269 0.0736329 3.03454e-21)
(1.21423 0.0792538 4.12637e-21)
(0.0863568 -0.0254608 1.84324e-19)
(0.254008 -0.0498985 -3.59208e-19)
(0.42445 -0.0440604 5.67585e-19)
(0.588194 -0.0276956 -2.95316e-19)
(0.741676 -0.00272599 -1.93312e-19)
(0.880059 0.0245413 2.23463e-19)
(1.00015 0.0510746 5.24158e-20)
(1.09957 0.0735717 -2.40695e-19)
(1.17776 0.092305 -7.96978e-20)
(1.23358 0.0974701 1.79572e-19)
(0.095024 -0.0244452 1.62121e-19)
(0.274414 -0.0452861 -7.25418e-20)
(0.452808 -0.0350032 -1.33109e-19)
(0.621461 -0.0144765 9.57888e-20)
(0.776992 0.013936 1.32561e-19)
(0.914853 0.0435535 2.26065e-19)
(1.03218 0.0712009 6.6529e-20)
(1.12712 0.0936848 4.36222e-19)
(1.19952 0.111227 -7.58237e-20)
(1.24959 0.115617 -2.88522e-19)
(0.103897 -0.0228665 -5.89415e-19)
(0.294969 -0.0394075 2.72229e-20)
(0.480937 -0.0243409 4.99788e-21)
(0.653928 0.000435377 8.84385e-20)
(0.810823 0.0321515 -5.08344e-19)
(0.947474 0.0638187 -2.12309e-19)
(1.06144 0.0921843 1.17656e-19)
(1.15149 0.11424 -1.95331e-19)
(1.21802 0.130218 -1.92001e-19)
(1.26242 0.133495 2.31631e-19)
(0.112911 -0.0206948 1.82111e-19)
(0.315513 -0.0322279 4.15428e-20)
(0.508614 -0.0120718 -7.73021e-20)
(0.685335 0.0169916 -8.17826e-20)
(0.842917 0.0518177 1.016e-19)
(0.977708 0.0851883 5.32346e-20)
(1.08781 0.113849 6.08963e-20)
(1.17268 0.135053 1.24029e-20)
(1.23333 0.149113 2.2503e-19)
(1.27221 0.150944 -5.96966e-20)
(0.121997 -0.0179063 1.05436e-21)
(0.335878 -0.0237287 -2.67196e-20)
(0.535611 0.00178292 3.60248e-20)
(0.715433 0.035119 5.59748e-20)
(0.873033 0.072809 1.03798e-19)
(1.00537 0.107498 1.71259e-19)
(1.11117 0.136012 -1.3634e-19)
(1.19066 0.155945 8.37958e-20)
(1.24554 0.167757 -7.73888e-20)
(1.27915 0.16784 2.77259e-20)
(0.13108 -0.0144846 2.17747e-19)
(0.355892 -0.0139086 -1.17048e-20)
(0.561702 0.0171796 9.43664e-20)
(0.743976 0.0547203 7.15937e-20)
(0.900954 0.0949801 -2.79437e-20)
(1.0303 0.130571 -6.95736e-20)
(1.13147 0.158491 3.9218e-20)
(1.20549 0.176745 -9.93529e-20)
(1.25476 0.186016 9.12757e-20)
(1.28342 0.184086 -6.21675e-20)
(0.140081 -0.0104206 -1.68781e-19)
(0.375378 -0.00278423 -7.68318e-20)
(0.586662 0.0340516 -1.37409e-19)
(0.770734 0.0756758 -5.63234e-20)
(0.926484 0.118168 1.29345e-19)
(1.05238 0.154222 -7.53937e-20)
(1.14867 0.181101 1.35842e-19)
(1.21722 0.197294 6.47321e-20)
(1.26113 0.203767 -4.85165e-20)
(1.28521 0.199606 8.69244e-20)
(0.148922 -0.00571407 1.77687e-19)
(0.394159 0.0096091 1.74766e-19)
(0.610273 0.0523096 1.07825e-19)
(0.795493 0.0978444 -1.06662e-19)
(0.949452 0.142195 -8.56456e-20)
(1.07151 0.17826 -1.00321e-19)
(1.16277 0.203663 -6.56593e-20)
(1.22593 0.217443 -5.83448e-20)
(1.2648 0.220903 -2.84028e-20)
(1.28471 0.214344 -5.04806e-20)
(0.157523 -0.000373282 -7.49743e-20)
(0.412061 0.0232174 -6.05144e-20)
(0.632329 0.071843 -4.0669e-20)
(0.818056 0.121066 6.91306e-20)
(0.969715 0.16687 7.36379e-20)
(1.08763 0.202489 8.6205e-20)
(1.17379 0.226003 -2.01325e-20)
(1.23172 0.237055 -2.43314e-20)
(1.26592 0.237333 8.82893e-21)
(1.2821 0.228255 2.99389e-20)
(0.165791 0.00558467 2.24923e-21)
(0.428904 0.0379685 -8.3192e-21)
(0.652626 0.0925212 -2.58031e-20)
(0.838244 0.145165 1.34053e-20)
(0.987154 0.191996 -5.96975e-21)
(1.10069 0.226716 -2.23903e-20)
(1.18177 0.247952 -1.50511e-20)
(1.23473 0.256004 1.64158e-20)
(1.26467 0.252975 -2.73264e-21)
(1.27757 0.241305 -6.8741e-22)
(0.173588 0.0121311 4.23885e-21)
(0.444481 0.0537691 -6.899e-21)
(0.670952 0.114193 -2.86576e-20)
(0.855884 0.169949 1.87199e-20)
(1.00167 0.217366 -1.04023e-20)
(1.11069 0.250746 -2.36909e-20)
(1.18679 0.269351 -8.82345e-21)
(1.23507 0.274176 1.65222e-20)
(1.26119 0.267758 -3.70946e-21)
(1.27129 0.253467 -1.16712e-21)
(0.180823 0.0192214 -6.80252e-20)
(0.458624 0.0704964 -4.73093e-20)
(0.687135 0.136679 -3.27879e-20)
(0.870842 0.195206 5.08693e-20)
(1.01319 0.242761 6.46516e-20)
(1.11764 0.274386 6.79076e-20)
(1.18893 0.290048 -1.30093e-20)
(1.23289 0.291466 -1.91204e-20)
(1.25565 0.281623 3.50042e-21)
(1.26341 0.264722 1.78033e-20)
(0.187472 0.0268078 1.56417e-19)
(0.471234 0.0880235 1.35982e-19)
(0.701066 0.159796 8.40136e-20)
(0.883043 0.220723 -6.43121e-20)
(1.02171 0.267975 -5.97141e-20)
(1.12159 0.297454 -1.09503e-19)
(1.18832 0.309904 -2.11957e-20)
(1.22835 0.307783 -3.27418e-20)
(1.24823 0.294518 -7.62423e-21)
(1.25409 0.27505 -3.40414e-20)
(0.193465 0.0348362 -1.59976e-19)
(0.482185 0.106211 -3.74239e-20)
(0.712627 0.183353 -1.29508e-19)
(0.892418 0.246285 -1.07212e-20)
(1.02723 0.292799 6.15126e-20)
(1.12262 0.319777 -1.98305e-20)
(1.18506 0.32879 7.91711e-20)
(1.22159 0.323045 3.20943e-20)
(1.23907 0.306398 -2.30533e-20)
(1.24348 0.284436 3.53642e-20)
(0.198728 0.0432434 1.17985e-19)
(0.491354 0.124907 -5.72509e-21)
(0.721716 0.207143 8.57677e-20)
(0.898916 0.271671 2.68667e-20)
(1.02976 0.317029 -2.22234e-20)
(1.12081 0.341187 1.86089e-20)
(1.17931 0.346588 -1.11601e-20)
(1.21278 0.337178 -3.33249e-20)
(1.22832 0.317223 2.38084e-20)
(1.23171 0.292864 -9.18204e-21)
(0.203192 0.0519584 -4.36187e-20)
(0.49864 0.143946 -1.67661e-21)
(0.728254 0.230955 4.93335e-20)
(0.902516 0.296658 -1.24306e-20)
(1.02935 0.340466 5.78727e-20)
(1.11627 0.361529 9.56483e-20)
(1.17119 0.363189 -5.05955e-20)
(1.20206 0.350118 4.60603e-20)
(1.21614 0.326961 -2.03829e-20)
(1.2189 0.300319 -6.08834e-21)
(0.206799 0.0609034 1.0178e-19)
(0.503961 0.163152 6.18508e-20)
(0.732191 0.254568 -3.63879e-20)
(0.903226 0.321024 -5.63634e-20)
(1.02608 0.362915 1.29905e-20)
(1.10911 0.380653 3.12704e-20)
(1.16086 0.378494 8.82107e-21)
(1.18959 0.361806 6.80598e-21)
(1.20266 0.335584 2.62881e-20)
(1.20517 0.306784 2.13483e-22)
(0.2095 0.0699941 -2.73558e-19)
(0.507252 0.182344 -3.93761e-20)
(0.733502 0.277763 -1.74756e-20)
(0.901076 0.344551 7.47285e-20)
(1.02002 0.384192 -1.92155e-19)
(1.09946 0.398425 -9.58978e-20)
(1.14846 0.392415 1.31846e-20)
(1.1755 0.372185 -7.51072e-21)
(1.18803 0.343068 -1.18259e-20)
(1.19065 0.312245 -2.79145e-20)
(0.211255 0.0791408 1.01752e-19)
(0.508473 0.201332 -2.70909e-20)
(0.732185 0.300315 -8.97284e-20)
(0.896124 0.367024 3.0801e-20)
(1.0113 0.404123 6.73967e-20)
(1.08749 0.414717 5.36541e-20)
(1.13417 0.404875 1.04352e-20)
(1.15997 0.381214 8.34279e-21)
(1.17235 0.349377 4.42814e-21)
(1.17542 0.316695 7.17377e-20)
(0.212033 0.0882493 9.51942e-20)
(0.5076 0.219924 -1.33248e-19)
(0.728267 0.322005 1.76897e-19)
(0.88845 0.388239 -6.44131e-20)
(1.00004 0.422543 -4.02722e-20)
(1.07333 0.429417 1.4418e-20)
(1.11813 0.415801 -6.78182e-21)
(1.14314 0.388862 -3.63234e-21)
(1.15573 0.354495 1.55978e-20)
(1.15959 0.320113 -5.78777e-20)
(0.211814 0.0972224 -1.27236e-19)
(0.504636 0.237927 8.52404e-20)
(0.721797 0.342617 -1.27589e-19)
(0.878159 0.407998 6.66458e-20)
(0.986388 0.4393 8.06127e-20)
(1.05716 0.44242 -9.54338e-21)
(1.10051 0.425133 -3.30979e-21)
(1.12515 0.395095 -5.61125e-20)
(1.13829 0.358409 1.12415e-20)
(1.14323 0.322479 -6.46326e-21)
(0.210591 0.105961 6.56822e-20)
(0.499603 0.255148 6.80429e-20)
(0.712849 0.36194 -1.73852e-20)
(0.865375 0.426116 -5.73201e-21)
(0.9705 0.454253 -3.5822e-20)
(1.03915 0.453635 -2.80572e-20)
(1.08148 0.432818 -2.42248e-20)
(1.10612 0.399887 2.85541e-20)
(1.12013 0.361105 4.95421e-20)
(1.12644 0.323778 -5.74431e-20)
(0.208368 0.114366 1.13415e-19)
(0.492545 0.271397 3.89106e-20)
(0.701521 0.379774 1.05993e-20)
(0.850241 0.442419 -5.61013e-21)
(0.952549 0.467277 -1.14149e-21)
(1.01947 0.462983 3.59661e-20)
(1.06119 0.438816 6.32681e-20)
(1.0862 0.403218 8.26946e-20)
(1.10136 0.362575 -1.9291e-19)
(1.10927 0.323991 3.42158e-19)
(0.205156 0.122338 -6.73492e-20)
(0.483529 0.286492 -6.99091e-20)
(0.687933 0.395928 2.79377e-20)
(0.83292 0.456748 -7.90836e-21)
(0.932719 0.478258 -4.40908e-20)
(0.998315 0.470396 -5.98861e-20)
(1.03982 0.443091 2.94473e-20)
(1.06551 0.405077 -5.98819e-20)
(1.08205 0.362813 1.28662e-19)
(1.0918 0.323099 -7.10661e-20)
(0.200979 0.129776 -9.62771e-21)
(0.472646 0.300259 -2.5104e-21)
(0.672224 0.410224 4.33257e-21)
(0.81359 0.468958 -6.71949e-21)
(0.911204 0.487099 1.34782e-19)
(0.975865 0.475819 -2.48085e-20)
(1.01752 0.44562 -3.18058e-20)
(1.0442 0.405458 -1.03688e-19)
(1.0623 0.361819 -1.63829e-19)
(1.07408 0.321081 -1.76894e-20)
(0.19588 0.136586 -4.89542e-21)
(0.459997 0.312527 5.10272e-21)
(0.654553 0.422501 -4.35934e-21)
(0.792441 0.47892 -6.06975e-20)
(0.888203 0.493714 -7.79833e-20)
(0.952311 0.479205 1.73854e-19)
(0.994461 0.446386 3.05057e-20)
(1.02238 0.404363 1.27037e-19)
(1.04217 0.359601 -9.88517e-20)
(1.05615 0.317915 1.7244e-19)
(0.189911 0.142686 -5.10016e-20)
(0.445704 0.323141 9.00066e-20)
(0.635096 0.432608 -9.71981e-20)
(0.769679 0.486522 1.20179e-19)
(0.863923 0.498036 -8.17932e-20)
(0.927845 0.480523 -3.3037e-19)
(0.970811 0.445381 -3.10213e-20)
(1.00019 0.4018 1.12913e-19)
(1.02175 0.356173 3.13627e-19)
(1.03804 0.313579 -1.21947e-19)
(0.18313 0.147991 1.15586e-19)
(0.42991 0.331963 -7.50699e-20)
(0.614047 0.440417 1.12455e-19)
(0.745517 0.491667 -9.79336e-20)
(0.838578 0.500008 9.5773e-20)
(0.902661 0.479749 2.94362e-19)
(0.946736 0.442604 -7.00526e-20)
(0.977759 0.397786 -1.73829e-19)
(1.00108 0.351548 -1.3099e-20)
(1.01977 0.308043 -1.43423e-19)
(0.17561 0.152428 -1.54375e-19)
(0.412779 0.338871 5.82647e-20)
(0.591612 0.445815 -1.94005e-19)
(0.72018 0.494281 9.31213e-20)
(0.812382 0.499593 -3.09828e-19)
(0.87695 0.476873 -2.60378e-19)
(0.922402 0.438063 2.16167e-19)
(0.955225 0.392344 4.95177e-20)
(0.980265 0.345751 -2.20273e-19)
(1.0014 0.301249 2.49339e-19)
(0.167417 0.155917 3.52099e-19)
(0.39447 0.343746 -6.07781e-20)
(0.568001 0.448705 1.9363e-19)
(0.693893 0.494302 1.02799e-20)
(0.785551 0.496764 4.02391e-19)
(0.850905 0.471893 -1.21607e-19)
(0.897973 0.431772 1.66777e-19)
(0.93273 0.385511 -2.44539e-19)
(0.959456 0.338866 -3.87265e-19)
(0.982895 0.293358 -4.60272e-19)
(0.158572 0.158326 3.11064e-20)
(0.37513 0.346451 -2.40778e-19)
(0.543421 0.44899 4.6012e-21)
(0.66688 0.491676 4.79273e-20)
(0.758297 0.491505 -4.81535e-19)
(0.824713 0.464816 4.67208e-20)
(0.873612 0.42375 -5.94836e-19)
(0.910442 0.37731 2.17142e-19)
(0.939002 0.331046 4.77185e-19)
(0.964215 0.284968 4.95317e-19)
(0.149183 0.159596 -7.45375e-20)
(0.354968 0.346895 -9.18997e-20)
(0.51811 0.446607 -3.7307e-19)
(0.639378 0.486378 2.40503e-19)
(0.730834 0.483819 2.84577e-19)
(0.798556 0.455662 -5.64455e-20)
(0.849471 0.414018 8.64981e-20)
(0.888532 0.367721 3.20674e-21)
(0.919262 0.322173 3.03653e-19)
(0.946891 0.277183 -9.71938e-19)
(0.139418 0.15975 -4.04974e-19)
(0.334238 0.345073 3.21512e-19)
(0.492337 0.441557 -9.30152e-21)
(0.611643 0.478423 -3.70898e-19)
(0.703383 0.473736 -3.54371e-19)
(0.772616 0.444464 3.0352e-20)
(0.82569 0.402603 2.30065e-19)
(0.867089 0.35676 -3.57017e-19)
(0.900077 0.312124 -6.82444e-19)
(0.929761 0.268765 9.2426e-19)
(0.129392 0.158769 1.84152e-19)
(0.31315 0.340963 3.72323e-20)
(0.466345 0.433837 3.65338e-19)
(0.583911 0.467832 2.34013e-19)
(0.676155 0.46129 -3.3655e-19)
(0.747066 0.431261 5.94865e-19)
(0.802408 0.389544 -4.69405e-19)
(0.846203 0.344468 7.26792e-19)
(0.881481 0.300958 6.24315e-19)
(0.913077 0.259364 -4.90893e-19)
(0.119204 0.15663 -4.8384e-19)
(0.291912 0.334551 -5.87579e-21)
(0.440374 0.423461 -1.41225e-19)
(0.556414 0.45464 -2.17107e-19)
(0.649351 0.446529 4.98533e-19)
(0.722075 0.416106 -6.35119e-19)
(0.779757 0.374886 5.14213e-19)
(0.825977 0.330884 -2.33279e-19)
(0.863556 0.288737 -2.61389e-19)
(0.897 0.249003 3.96002e-19)
(0.108962 0.153323 9.60365e-19)
(0.270734 0.325847 -7.95327e-20)
(0.41466 0.410464 1.01936e-20)
(0.52938 0.438901 1.43093e-19)
(0.623169 0.429517 4.61489e-19)
(0.697804 0.399058 -1.41838e-19)
(0.757865 0.358682 2.05176e-19)
(0.80651 0.316048 -2.72351e-19)
(0.846373 0.275498 3.6353e-19)
(0.881614 0.237736 2.18939e-19)
(0.0987765 0.148852 -1.03706e-18)
(0.249827 0.314884 -4.06059e-19)
(0.389438 0.394904 3.36807e-19)
(0.50303 0.420688 3.47177e-19)
(0.597799 0.410329 -2.01258e-19)
(0.674407 0.380189 4.29605e-19)
(0.736854 0.340991 4.33548e-20)
(0.787899 0.300005 -3.49719e-19)
(0.830004 0.261272 2.41305e-20)
(0.866984 0.225593 1.55341e-19)
(0.088757 0.143235 3.57399e-19)
(0.229399 0.301713 3.55555e-19)
(0.364937 0.376856 -6.14136e-20)
(0.477578 0.400089 -3.83947e-19)
(0.573424 0.389054 -5.17054e-20)
(0.652033 0.359577 -5.54619e-19)
(0.716842 0.32188 2.04722e-19)
(0.770232 0.282808 1.12148e-19)
(0.814514 0.246096 3.13375e-19)
(0.853171 0.212603 -9.42171e-19)
(0.0790123 0.136499 2.40402e-19)
(0.209651 0.286407 -3.48609e-19)
(0.341378 0.356418 -1.60618e-19)
(0.453229 0.37721 -7.20513e-20)
(0.550216 0.365792 -2.70223e-19)
(0.630819 0.337313 6.25963e-19)
(0.697936 0.301422 -3.87478e-19)
(0.753593 0.264513 -3.41655e-19)
(0.799967 0.230015 -3.19261e-19)
(0.840229 0.198804 3.39173e-19)
(0.0696487 0.128685 -1.4063e-19)
(0.190778 0.269055 2.41026e-19)
(0.318971 0.333705 1.67569e-19)
(0.430178 0.352172 2.73763e-19)
(0.528339 0.340657 5.90741e-19)
(0.610897 0.313492 -5.45286e-19)
(0.680238 0.279697 -3.27382e-19)
(0.738062 0.245185 4.50439e-19)
(0.786422 0.213077 1.75649e-20)
(0.828207 0.184241 2.25542e-21)
(0.0607688 0.119844 -2.03747e-19)
(0.172969 0.249768 2.98934e-19)
(0.297915 0.30885 -1.58319e-20)
(0.408606 0.32511 -3.33817e-19)
(0.507944 0.313772 -2.69526e-19)
(0.592387 0.288222 6.74287e-19)
(0.663842 0.256791 5.55366e-19)
(0.723709 0.224892 2.29486e-19)
(0.773934 0.195337 -1.33683e-19)
(0.817148 0.168964 -1.05759e-19)
(0.05247 0.110037 2.12093e-19)
(0.156398 0.228672 -5.44945e-20)
(0.278398 0.282003 -6.59448e-19)
(0.388684 0.296173 2.11472e-19)
(0.489173 0.285271 2.09111e-19)
(0.575402 0.261615 -8.81159e-20)
(0.648835 0.232797 -2.81508e-19)
(0.710602 0.203709 -5.48778e-19)
(0.762551 0.176857 -1.41621e-19)
(0.80709 0.153025 -1.28036e-19)
(0.0448438 0.099337 1.37222e-19)
(0.141228 0.205911 4.36366e-19)
(0.260593 0.25333 -2.35402e-21)
(0.370567 0.265524 -5.03506e-19)
(0.472154 0.255297 -8.02658e-19)
(0.560043 0.233791 -4.051e-19)
(0.635295 0.207813 2.58991e-19)
(0.6988 0.181715 6.48668e-19)
(0.75232 0.1577 -4.03253e-19)
(0.798066 0.136485 4.90327e-19)
(0.0379741 0.0878239 2.72497e-19)
(0.12761 0.181641 -3.44679e-19)
(0.244656 0.223009 2.92332e-19)
(0.354397 0.233334 3.90334e-19)
(0.457003 0.224002 7.96064e-19)
(0.5464 0.204878 8.81598e-20)
(0.623292 0.181942 -3.50455e-19)
(0.688356 0.158994 7.44009e-20)
(0.743279 0.137936 4.87371e-19)
(0.790107 0.119406 -1.40759e-19)
(0.0319371 0.0755878 -3.04852e-19)
(0.115678 0.156036 -1.30239e-20)
(0.230726 0.191233 -3.30719e-19)
(0.340298 0.199788 4.93396e-20)
(0.443822 0.191547 -3.64896e-19)
(0.534555 0.175009 -1.84668e-19)
(0.612888 0.155294 1.53029e-19)
(0.679316 0.135636 -5.25626e-19)
(0.735464 0.117638 -1.77693e-19)
(0.783238 0.101853 6.70019e-20)
(0.0267997 0.0627261 -2.3344e-19)
(0.105548 0.129278 2.00419e-19)
(0.218928 0.158206 1.73707e-19)
(0.328379 0.165079 8.10189e-20)
(0.432701 0.158098 -5.08805e-20)
(0.524577 0.144321 4.73064e-19)
(0.604136 0.12798 1.79563e-19)
(0.671722 0.111731 1.87699e-19)
(0.728906 0.0968827 1.61749e-19)
(0.77748 0.0838943 -1.17232e-19)
(0.0226189 0.0493425 2.47056e-19)
(0.0973221 0.101563 -3.18673e-19)
(0.209362 0.124142 1.41066e-19)
(0.318733 0.129407 -9.61616e-20)
(0.423713 0.123827 2.34589e-19)
(0.516525 0.112958 -3.96112e-19)
(0.597081 0.100116 7.60994e-20)
(0.665606 0.0873746 -2.41318e-20)
(0.723629 0.0757497 -1.17513e-19)
(0.772853 0.0656015 8.42506e-21)
(0.0194413 0.0355462 -8.45745e-20)
(0.0910798 0.0730925 1.65176e-19)
(0.202114 0.0892625 -1.44636e-20)
(0.311433 0.0929786 1.77635e-21)
(0.41692 0.0889114 -3.44923e-20)
(0.510444 0.0810654 1.80453e-19)
(0.591759 0.071821 -2.485e-19)
(0.660995 0.0626649 6.23908e-20)
(0.719654 0.0543203 -1.01189e-19)
(0.769369 0.0470467 7.94658e-20)
(0.0173026 0.0214505 5.5733e-21)
(0.0868834 0.044077 8.92083e-21)
(0.197247 0.053795 3.04556e-20)
(0.306535 0.0560066 -4.93547e-20)
(0.412366 0.0535335 -8.41107e-20)
(0.506371 0.0487925 -2.62458e-20)
(0.588196 0.0432173 2.41775e-20)
(0.65791 0.0377014 -6.63643e-20)
(0.716995 0.0326781 9.75975e-21)
(0.767041 0.0283038 1.0549e-19)
(0.016227 0.00717145 3.90141e-21)
(0.0847745 0.0147303 -1.46359e-20)
(0.194802 0.0179718 4.88526e-20)
(0.304077 0.018706 3.64603e-20)
(0.410081 0.0178761 5.93737e-20)
(0.504328 0.0162901 8.28246e-21)
(0.58641 0.0144269 2.54041e-20)
(0.656364 0.0125845 4.53745e-20)
(0.715663 0.0109073 -9.09863e-21)
(0.765875 0.0094475 -2.49495e-21)
(0.016227 -0.00717145 7.88823e-21)
(0.0847745 -0.0147303 -1.29276e-20)
(0.194802 -0.0179718 5.20981e-20)
(0.304077 -0.018706 2.72999e-20)
(0.410081 -0.0178761 5.82908e-20)
(0.504328 -0.0162901 1.38801e-20)
(0.58641 -0.0144269 2.2051e-20)
(0.656364 -0.0125845 5.47271e-20)
(0.715663 -0.0109073 -1.4294e-20)
(0.765875 -0.0094475 -5.8536e-21)
(0.0173026 -0.0214505 1.33372e-21)
(0.0868834 -0.044077 1.92362e-20)
(0.197247 -0.053795 3.23999e-20)
(0.306535 -0.0560066 -6.40141e-20)
(0.412366 -0.0535335 -7.71391e-20)
(0.506371 -0.0487925 -2.66205e-21)
(0.588196 -0.0432173 -2.91806e-21)
(0.65791 -0.0377014 -6.51499e-20)
(0.716995 -0.0326781 3.22313e-20)
(0.767041 -0.0283038 1.052e-19)
(0.0194413 -0.0355462 -8.55839e-20)
(0.0910798 -0.0730925 1.58097e-19)
(0.202114 -0.0892625 -6.67705e-21)
(0.311433 -0.0929786 -7.33166e-21)
(0.41692 -0.0889114 3.17705e-20)
(0.510444 -0.0810654 8.5269e-20)
(0.591759 -0.071821 -1.91699e-19)
(0.660995 -0.0626649 2.18549e-20)
(0.719654 -0.0543203 -1.70264e-20)
(0.769369 -0.0470467 1.6451e-20)
(0.0226189 -0.0493425 1.94136e-19)
(0.0973221 -0.101563 -3.1622e-19)
(0.209362 -0.124142 1.60819e-19)
(0.318733 -0.129407 -5.00574e-20)
(0.423713 -0.123827 1.636e-19)
(0.516525 -0.112958 -3.32476e-19)
(0.597081 -0.100116 6.48293e-20)
(0.665605 -0.0873746 -5.01944e-20)
(0.723629 -0.0757496 -1.68147e-19)
(0.772853 -0.0656015 8.43536e-20)
(0.0267997 -0.0627261 -1.94962e-19)
(0.105548 -0.129278 2.0379e-19)
(0.218928 -0.158206 1.54463e-19)
(0.328379 -0.165079 1.03161e-19)
(0.432701 -0.158098 -5.69731e-20)
(0.524577 -0.144321 4.42022e-19)
(0.604136 -0.12798 2.96579e-19)
(0.671722 -0.111731 1.10254e-19)
(0.728906 -0.0968827 2.16682e-19)
(0.77748 -0.0838943 -1.31115e-19)
(0.0319371 -0.0755878 -2.70193e-19)
(0.115678 -0.156036 -3.06766e-20)
(0.230726 -0.191233 -2.65585e-19)
(0.340298 -0.199788 9.72395e-21)
(0.443822 -0.191547 -4.17861e-19)
(0.534555 -0.175009 -2.24507e-19)
(0.612888 -0.155294 2.39455e-19)
(0.679316 -0.135636 -4.11548e-19)
(0.735464 -0.117638 -2.21906e-19)
(0.783238 -0.101853 -8.02249e-20)
(0.0379741 -0.0878239 2.7575e-19)
(0.12761 -0.181641 -2.48986e-19)
(0.244656 -0.223009 2.31821e-19)
(0.354397 -0.233334 4.43791e-19)
(0.457003 -0.224002 7.35284e-19)
(0.5464 -0.204878 1.43837e-19)
(0.623292 -0.181942 -3.27687e-19)
(0.688356 -0.158994 3.16278e-20)
(0.743279 -0.137936 4.95923e-19)
(0.790107 -0.119406 -1.19748e-19)
(0.0448438 -0.099337 2.10157e-19)
(0.141228 -0.205911 3.09709e-19)
(0.260593 -0.25333 -2.37197e-20)
(0.370567 -0.265524 -3.77635e-19)
(0.472154 -0.255297 -7.89024e-19)
(0.560043 -0.233791 -4.31581e-19)
(0.635295 -0.207813 3.75163e-20)
(0.6988 -0.181715 8.35094e-19)
(0.75232 -0.1577 -3.15905e-19)
(0.798066 -0.136485 3.45683e-19)