/*--------------------------------*- C++ -*----------------------------------*\
  =========                 |
  \\      /  F ield         | OpenFOAM: The Open Source CFD Toolbox
   \\    /   O peration     | Website:  https://openfoam.org
    \\  /    A nd           | Version:  7
     \\/     M anipulation  |
\*---------------------------------------------------------------------------*/
FoamFile
{
    version     2.0;
    format      ascii;
    class       volScalarField;
    location    "35";
    object      p;
}
// * * * * * * * * * * * * * * * * * * * * * * * * * * * * * * * * * * * * * //

dimensions      [0 2 -2 0 0 0 0];

internalField   nonuniform List<scalar> 
42000
(
-0.384428
-0.387726
-0.385876
-0.383056
-0.378353
-0.372494
-0.365588
-0.357877
-0.349519
-0.340665
-0.331445
-0.321975
-0.312364
-0.302711
-0.293111
-0.283648
-0.274419
-0.265405
-0.257
-0.248205
-0.384706
-0.387946
-0.386075
-0.383226
-0.378502
-0.372625
-0.365703
-0.357979
-0.34961
-0.340745
-0.331515
-0.322035
-0.312415
-0.302752
-0.293143
-0.283669
-0.274431
-0.265403
-0.257013
-0.248107
-0.385261
-0.388386
-0.386471
-0.383565
-0.378802
-0.372887
-0.365935
-0.358184
-0.349791
-0.340905
-0.331654
-0.322156
-0.312516
-0.302835
-0.293205
-0.283712
-0.274455
-0.2654
-0.257038
-0.247912
-0.386091
-0.389045
-0.387064
-0.384074
-0.37925
-0.37328
-0.366282
-0.35849
-0.350062
-0.341144
-0.331863
-0.322336
-0.312668
-0.302958
-0.293299
-0.283775
-0.27449
-0.265396
-0.257075
-0.247618
-0.387196
-0.389921
-0.387853
-0.384751
-0.379846
-0.373803
-0.366743
-0.358898
-0.350421
-0.34146
-0.33214
-0.322575
-0.312869
-0.303121
-0.293424
-0.28386
-0.274537
-0.265389
-0.257125
-0.247227
-0.388571
-0.391013
-0.388836
-0.385594
-0.380588
-0.374453
-0.367317
-0.359405
-0.350869
-0.341855
-0.332485
-0.322872
-0.31312
-0.303324
-0.293578
-0.283965
-0.274595
-0.26538
-0.257187
-0.246738
-0.390216
-0.392318
-0.39001
-0.386601
-0.381474
-0.37523
-0.368003
-0.36001
-0.351404
-0.342326
-0.332897
-0.323227
-0.313419
-0.303567
-0.293763
-0.28409
-0.274664
-0.265368
-0.25726
-0.246153
-0.392125
-0.393834
-0.391374
-0.38777
-0.382504
-0.376132
-0.368799
-0.360713
-0.352025
-0.342873
-0.333375
-0.323639
-0.313766
-0.303848
-0.293978
-0.284235
-0.274745
-0.265354
-0.257346
-0.24547
-0.394295
-0.395557
-0.392925
-0.3891
-0.383673
-0.377157
-0.369703
-0.361511
-0.35273
-0.343493
-0.333917
-0.324107
-0.31416
-0.304168
-0.294221
-0.2844
-0.274836
-0.265337
-0.257444
-0.244692
-0.396722
-0.397484
-0.394659
-0.390586
-0.384981
-0.378303
-0.370713
-0.362402
-0.353517
-0.344187
-0.334524
-0.32463
-0.314601
-0.304526
-0.294494
-0.284584
-0.274938
-0.265316
-0.257553
-0.243819
-0.3994
-0.39961
-0.396572
-0.392226
-0.386424
-0.379567
-0.371827
-0.363385
-0.354385
-0.344951
-0.335192
-0.325206
-0.315087
-0.30492
-0.294794
-0.284787
-0.27505
-0.265292
-0.257673
-0.242852
-0.402323
-0.401932
-0.398661
-0.394016
-0.387999
-0.380946
-0.373042
-0.364457
-0.355332
-0.345784
-0.33592
-0.325835
-0.315617
-0.305351
-0.295123
-0.285009
-0.275172
-0.265263
-0.257804
-0.241791
-0.405487
-0.404445
-0.400921
-0.395953
-0.389702
-0.382437
-0.374356
-0.365616
-0.356355
-0.346685
-0.336708
-0.326515
-0.316191
-0.305817
-0.295479
-0.285249
-0.275304
-0.26523
-0.257945
-0.240637
-0.408884
-0.407143
-0.403349
-0.398033
-0.39153
-0.384037
-0.375766
-0.36686
-0.357452
-0.347651
-0.337553
-0.327244
-0.316807
-0.306318
-0.295861
-0.285508
-0.275447
-0.265193
-0.258096
-0.239393
-0.412508
-0.410021
-0.405938
-0.40025
-0.39348
-0.385743
-0.377268
-0.368184
-0.358621
-0.34868
-0.338453
-0.328022
-0.317464
-0.306853
-0.29627
-0.285784
-0.275599
-0.26515
-0.258256
-0.238058
-0.416352
-0.413073
-0.408683
-0.402601
-0.395546
-0.38755
-0.37886
-0.369588
-0.359859
-0.34977
-0.339407
-0.328846
-0.31816
-0.307421
-0.296705
-0.286078
-0.275761
-0.265103
-0.258424
-0.236634
-0.420406
-0.416293
-0.411579
-0.405081
-0.397725
-0.389456
-0.380538
-0.371066
-0.361164
-0.350919
-0.340412
-0.329715
-0.318896
-0.308022
-0.297166
-0.28639
-0.275933
-0.26505
-0.258599
-0.235123
-0.424664
-0.419676
-0.414621
-0.407685
-0.400013
-0.391456
-0.382298
-0.372618
-0.362533
-0.352124
-0.341467
-0.330628
-0.319669
-0.308654
-0.297652
-0.286719
-0.276115
-0.264992
-0.258779
-0.233525
-0.429117
-0.423213
-0.417801
-0.410408
-0.402404
-0.393547
-0.384137
-0.374238
-0.363962
-0.353383
-0.342569
-0.331583
-0.320479
-0.309317
-0.298163
-0.287067
-0.276307
-0.264928
-0.258964
-0.231842
-0.433756
-0.426898
-0.421115
-0.413244
-0.404894
-0.395723
-0.386052
-0.375925
-0.36545
-0.354693
-0.343718
-0.332577
-0.321324
-0.31001
-0.298698
-0.287432
-0.27651
-0.264859
-0.259153
-0.230075
-0.438573
-0.430725
-0.424554
-0.416187
-0.407478
-0.397981
-0.388038
-0.377674
-0.366993
-0.356052
-0.344909
-0.333611
-0.322204
-0.310733
-0.299259
-0.287815
-0.276724
-0.264785
-0.259343
-0.228225
-0.443557
-0.434684
-0.428113
-0.419232
-0.410151
-0.400316
-0.390091
-0.379483
-0.368588
-0.357458
-0.346142
-0.334681
-0.323116
-0.311485
-0.299844
-0.288217
-0.27695
-0.264707
-0.259533
-0.226293
-0.448701
-0.43877
-0.431785
-0.422373
-0.412908
-0.402724
-0.392208
-0.381347
-0.370233
-0.358907
-0.347414
-0.335787
-0.32406
-0.312266
-0.300454
-0.288639
-0.277189
-0.264626
-0.259721
-0.22428
-0.453992
-0.442973
-0.435562
-0.425604
-0.415743
-0.4052
-0.394385
-0.383263
-0.371923
-0.360397
-0.348722
-0.336926
-0.325035
-0.313075
-0.301089
-0.289081
-0.277441
-0.264543
-0.259904
-0.222186
-0.459423
-0.447286
-0.439438
-0.428919
-0.418651
-0.407739
-0.396617
-0.385228
-0.373657
-0.361926
-0.350066
-0.338097
-0.32604
-0.313912
-0.301749
-0.289545
-0.277708
-0.264459
-0.260082
-0.220013
-0.464981
-0.4517
-0.443404
-0.43231
-0.421626
-0.410336
-0.398899
-0.387238
-0.37543
-0.36349
-0.351442
-0.339298
-0.327073
-0.314776
-0.302435
-0.290031
-0.277993
-0.264378
-0.26025
-0.217761
-0.470657
-0.456207
-0.447453
-0.435773
-0.424663
-0.412987
-0.401229
-0.389289
-0.37724
-0.365087
-0.352848
-0.340528
-0.328133
-0.315667
-0.303148
-0.290543
-0.278296
-0.264303
-0.260407
-0.215431
-0.47644
-0.460798
-0.451578
-0.439299
-0.427756
-0.415687
-0.403601
-0.391377
-0.379083
-0.366714
-0.354281
-0.341784
-0.329219
-0.316584
-0.303888
-0.291082
-0.278621
-0.26424
-0.260549
-0.213027
-0.482319
-0.465464
-0.455771
-0.442883
-0.430899
-0.41843
-0.406011
-0.393499
-0.380955
-0.368368
-0.35574
-0.343064
-0.33033
-0.317527
-0.304655
-0.29165
-0.278972
-0.264195
-0.260673
-0.210552
-0.488283
-0.470196
-0.460023
-0.446517
-0.434086
-0.421211
-0.408455
-0.39565
-0.382854
-0.370046
-0.357221
-0.344366
-0.331464
-0.318496
-0.305452
-0.292252
-0.279353
-0.264178
-0.260776
-0.208015
-0.494319
-0.474986
-0.464325
-0.450195
-0.437311
-0.424025
-0.410927
-0.397826
-0.384776
-0.371744
-0.358722
-0.345687
-0.332619
-0.31949
-0.306279
-0.29289
-0.27977
-0.264202
-0.260853
-0.205427
-0.500418
-0.479823
-0.468671
-0.453909
-0.440568
-0.426867
-0.413424
-0.400024
-0.386716
-0.37346
-0.360239
-0.347026
-0.333793
-0.320507
-0.307136
-0.293569
-0.28023
-0.264285
-0.260901
-0.202812
-0.506566
-0.484698
-0.473051
-0.457652
-0.443851
-0.429732
-0.41594
-0.402239
-0.388671
-0.375189
-0.361769
-0.348378
-0.334984
-0.321547
-0.308025
-0.294294
-0.280741
-0.264451
-0.260913
-0.200207
-0.512751
-0.4896
-0.477456
-0.461417
-0.447153
-0.432613
-0.418471
-0.404467
-0.390638
-0.376928
-0.363308
-0.349742
-0.33619
-0.322608
-0.308947
-0.295071
-0.281315
-0.264733
-0.260884
-0.19768
-0.518961
-0.494521
-0.481878
-0.465196
-0.450467
-0.435504
-0.421011
-0.406702
-0.392611
-0.378672
-0.364853
-0.351112
-0.337406
-0.323687
-0.3099
-0.295904
-0.281966
-0.265173
-0.260817
-0.195369
-0.525183
-0.49945
-0.486307
-0.468982
-0.453787
-0.438401
-0.423555
-0.40894
-0.394585
-0.380418
-0.3664
-0.352484
-0.338628
-0.324781
-0.310885
-0.296798
-0.282708
-0.265828
-0.26073
-0.193524
-0.531403
-0.504376
-0.490735
-0.472766
-0.457106
-0.441297
-0.426098
-0.411176
-0.396557
-0.38216
-0.367942
-0.353854
-0.339851
-0.325885
-0.311897
-0.297755
-0.28356
-0.266765
-0.260595
-0.192325
-0.537611
-0.509293
-0.495156
-0.476544
-0.46042
-0.444188
-0.428637
-0.413408
-0.398524
-0.383896
-0.369478
-0.355217
-0.34107
-0.326993
-0.312933
-0.298776
-0.284549
-0.268073
-0.260247
-0.191659
-0.543795
-0.514194
-0.499562
-0.480312
-0.463726
-0.447072
-0.431168
-0.415632
-0.400482
-0.385622
-0.371002
-0.356568
-0.34228
-0.328099
-0.313985
-0.299858
-0.285714
-0.269891
-0.259825
-0.193168
-0.549906
-0.519033
-0.503912
-0.484028
-0.466984
-0.449913
-0.433659
-0.417818
-0.402404
-0.387313
-0.372492
-0.357887
-0.343459
-0.329179
-0.315027
-0.300972
-0.287049
-0.272307
-0.261
-0.207923
-0.555851
-0.523715
-0.508111
-0.487602
-0.470112
-0.452634
-0.436041
-0.419904
-0.404233
-0.388917
-0.3739
-0.359128
-0.344565
-0.330193
-0.316013
-0.302057
-0.288431
-0.275004
-0.265109
-0.254587
-0.561837
-0.528452
-0.512369
-0.491239
-0.473301
-0.455413
-0.438475
-0.422035
-0.406099
-0.39055
-0.375328
-0.360379
-0.345671
-0.331199
-0.316982
-0.303109
-0.289737
-0.277449
-0.266901
-0.273629
-0.567783
-0.533154
-0.516599
-0.494854
-0.476471
-0.458175
-0.440893
-0.424149
-0.407945
-0.392158
-0.376726
-0.361594
-0.346735
-0.332151
-0.317882
-0.304058
-0.290837
-0.279335
-0.267055
-0.280808
-0.573638
-0.537774
-0.520754
-0.498402
-0.479581
-0.460882
-0.443259
-0.426212
-0.409741
-0.393715
-0.378069
-0.362749
-0.347731
-0.333025
-0.318682
-0.304865
-0.291693
-0.280684
-0.266914
-0.284387
-0.579389
-0.542302
-0.524824
-0.501875
-0.482624
-0.463529
-0.445568
-0.42822
-0.411481
-0.395213
-0.37935
-0.363835
-0.348649
-0.333805
-0.319365
-0.305509
-0.292301
-0.281547
-0.266633
-0.285908
-0.585025
-0.546729
-0.528803
-0.505268
-0.485595
-0.466109
-0.447815
-0.430168
-0.41316
-0.396647
-0.380561
-0.364844
-0.349478
-0.33448
-0.319916
-0.305975
-0.292661
-0.28196
-0.266098
-0.285823
-0.590529
-0.551043
-0.53268
-0.508571
-0.488485
-0.468615
-0.449991
-0.432046
-0.414768
-0.398008
-0.381692
-0.365765
-0.350206
-0.335037
-0.320322
-0.306252
-0.292771
-0.281958
-0.265292
-0.284572
-0.595886
-0.555232
-0.536443
-0.511774
-0.491284
-0.471037
-0.452088
-0.433847
-0.416298
-0.399286
-0.382735
-0.366587
-0.350823
-0.335464
-0.32057
-0.306329
-0.29263
-0.281582
-0.264234
-0.2825
-0.601082
-0.559282
-0.54008
-0.514865
-0.493981
-0.473365
-0.454096
-0.43556
-0.417739
-0.400471
-0.383678
-0.3673
-0.351317
-0.335749
-0.320651
-0.306201
-0.292242
-0.280864
-0.262941
-0.279831
-0.6061
-0.563181
-0.543578
-0.517833
-0.496567
-0.475591
-0.456005
-0.437177
-0.419082
-0.401554
-0.384511
-0.367893
-0.351677
-0.335881
-0.320554
-0.305862
-0.29161
-0.279834
-0.261425
-0.276712
-0.610924
-0.566915
-0.546927
-0.520667
-0.49903
-0.477702
-0.457806
-0.438686
-0.420316
-0.402524
-0.385224
-0.368355
-0.351892
-0.335851
-0.320272
-0.305309
-0.290736
-0.278517
-0.259696
-0.273247
-0.615538
-0.57047
-0.550111
-0.523356
-0.50136
-0.47969
-0.459488
-0.440079
-0.421432
-0.403369
-0.385805
-0.368674
-0.351951
-0.335648
-0.319797
-0.304538
-0.289626
-0.276933
-0.257764
-0.269509
-0.619926
-0.573832
-0.55312
-0.525887
-0.503545
-0.481542
-0.46104
-0.441343
-0.422417
-0.40408
-0.386243
-0.36884
-0.351844
-0.335262
-0.319122
-0.303547
-0.288281
-0.275097
-0.255637
-0.265551
-0.624071
-0.576987
-0.555938
-0.528248
-0.505574
-0.483248
-0.462451
-0.442467
-0.423261
-0.404644
-0.386527
-0.368842
-0.351559
-0.334685
-0.31824
-0.302334
-0.286706
-0.273024
-0.253322
-0.261412
-0.627957
-0.57992
-0.558552
-0.530426
-0.507434
-0.484795
-0.463708
-0.44344
-0.423951
-0.40505
-0.386645
-0.368668
-0.351088
-0.333908
-0.317145
-0.300895
-0.284901
-0.270724
-0.250822
-0.257118
-0.631565
-0.582617
-0.560949
-0.532408
-0.509112
-0.486171
-0.464801
-0.44425
-0.424477
-0.405286
-0.386586
-0.368307
-0.350419
-0.332922
-0.315831
-0.29923
-0.282868
-0.268204
-0.24814
-0.252689
-0.634879
-0.585062
-0.563114
-0.534181
-0.510595
-0.487363
-0.465716
-0.444884
-0.424824
-0.405339
-0.386336
-0.367747
-0.349542
-0.33172
-0.314291
-0.297334
-0.280608
-0.265471
-0.245278
-0.248138
-0.637882
-0.587241
-0.565032
-0.53573
-0.511872
-0.488359
-0.46644
-0.445329
-0.424981
-0.405197
-0.385886
-0.366978
-0.348447
-0.330291
-0.31252
-0.295206
-0.278122
-0.262527
-0.242235
-0.243474
-0.640554
-0.589137
-0.566689
-0.537043
-0.512927
-0.489145
-0.466961
-0.445572
-0.424935
-0.404848
-0.385221
-0.365989
-0.347125
-0.32863
-0.310513
-0.292843
-0.275409
-0.259376
-0.239012
-0.238701
-0.64288
-0.590735
-0.56807
-0.538105
-0.513747
-0.489708
-0.467265
-0.4456
-0.424672
-0.404278
-0.384331
-0.364768
-0.345566
-0.326727
-0.308264
-0.290241
-0.272468
-0.256019
-0.235605
-0.233822
-0.644839
-0.592019
-0.569158
-0.538901
-0.514317
-0.490034
-0.467337
-0.4454
-0.42418
-0.403476
-0.383204
-0.363305
-0.34376
-0.324576
-0.305768
-0.287398
-0.269298
-0.252456
-0.232015
-0.228837
-0.646415
-0.592973
-0.56994
-0.539417
-0.514624
-0.490108
-0.467165
-0.444958
-0.423445
-0.402428
-0.381827
-0.361589
-0.341699
-0.322169
-0.303019
-0.284311
-0.265898
-0.248687
-0.228237
-0.223746
-0.647589
-0.593581
-0.570399
-0.539637
-0.514654
-0.489917
-0.466735
-0.444259
-0.422453
-0.401121
-0.380189
-0.359609
-0.339373
-0.319499
-0.300012
-0.280976
-0.262266
-0.244712
-0.224271
-0.218544
-0.648342
-0.593826
-0.57052
-0.539547
-0.51439
-0.489445
-0.466031
-0.443291
-0.421192
-0.399544
-0.378278
-0.357355
-0.336774
-0.316559
-0.296742
-0.27739
-0.2584
-0.240528
-0.220112
-0.21323
-0.648656
-0.593693
-0.570286
-0.539132
-0.513818
-0.488679
-0.465039
-0.442038
-0.419648
-0.397682
-0.376083
-0.354817
-0.333894
-0.313343
-0.293205
-0.273551
-0.254297
-0.236135
-0.215759
-0.2078
-0.648513
-0.593165
-0.569682
-0.538375
-0.512924
-0.487603
-0.463746
-0.440488
-0.417807
-0.395525
-0.373592
-0.351986
-0.330723
-0.309844
-0.289397
-0.269454
-0.249957
-0.23153
-0.211209
-0.202248
-0.647895
-0.592224
-0.568692
-0.537263
-0.511691
-0.486202
-0.462136
-0.438626
-0.415657
-0.39306
-0.370795
-0.348852
-0.327256
-0.306057
-0.285312
-0.265098
-0.245376
-0.226712
-0.20646
-0.196572
-0.646783
-0.590856
-0.5673
-0.535779
-0.510106
-0.484463
-0.460195
-0.436438
-0.413184
-0.390274
-0.367682
-0.345405
-0.323484
-0.301976
-0.280947
-0.26048
-0.240555
-0.22168
-0.20151
-0.190765
-0.645159
-0.589044
-0.56549
-0.533909
-0.508153
-0.48237
-0.45791
-0.433911
-0.410376
-0.387158
-0.364241
-0.341639
-0.319401
-0.297596
-0.276299
-0.255598
-0.235489
-0.216431
-0.196357
-0.184825
-0.643004
-0.586772
-0.563246
-0.531636
-0.505817
-0.479908
-0.455265
-0.431031
-0.40722
-0.383698
-0.360464
-0.337544
-0.315
-0.292912
-0.271364
-0.250449
-0.23018
-0.210965
-0.191
-0.178747
-0.640302
-0.584023
-0.560552
-0.528947
-0.503084
-0.477064
-0.452248
-0.427786
-0.403705
-0.379885
-0.356341
-0.333113
-0.310276
-0.28792
-0.26614
-0.245032
-0.224625
-0.20528
-0.185438
-0.172527
-0.637034
-0.580782
-0.557394
-0.525825
-0.499938
-0.473823
-0.448844
-0.424163
-0.399819
-0.375709
-0.351864
-0.328339
-0.305223
-0.282617
-0.260624
-0.239346
-0.218824
-0.199376
-0.179671
-0.166162
-0.633183
-0.577034
-0.553756
-0.522257
-0.496366
-0.470172
-0.445041
-0.420149
-0.39555
-0.37116
-0.347025
-0.323216
-0.299837
-0.276999
-0.254814
-0.233389
-0.212776
-0.193252
-0.173698
-0.159649
-0.62873
-0.572763
-0.549623
-0.518228
-0.492353
-0.466096
-0.440826
-0.415732
-0.390889
-0.366228
-0.341815
-0.317738
-0.294113
-0.271064
-0.24871
-0.227161
-0.206481
-0.186909
-0.167519
-0.152985
-0.623659
-0.567954
-0.544981
-0.513725
-0.487886
-0.461584
-0.436186
-0.410903
-0.385825
-0.360906
-0.336229
-0.3119
-0.288049
-0.26481
-0.242309
-0.220663
-0.19994
-0.180345
-0.161135
-0.146169
-0.617949
-0.562593
-0.539814
-0.508732
-0.482952
-0.456621
-0.431109
-0.405648
-0.380349
-0.355185
-0.330261
-0.305698
-0.281641
-0.258234
-0.235613
-0.213893
-0.193153
-0.173563
-0.154547
-0.139198
-0.611583
-0.556666
-0.53411
-0.503239
-0.477538
-0.451196
-0.425585
-0.39996
-0.374452
-0.349058
-0.323904
-0.299127
-0.274887
-0.251337
-0.22862
-0.206854
-0.186122
-0.166563
-0.147756
-0.132073
-0.60456
-0.550175
-0.527869
-0.497242
-0.47164
-0.445305
-0.419608
-0.393831
-0.368129
-0.342523
-0.317156
-0.292186
-0.267786
-0.244119
-0.221332
-0.199546
-0.178848
-0.159347
-0.140765
-0.124792
-0.596865
-0.543116
-0.521084
-0.490734
-0.465251
-0.438939
-0.41317
-0.387257
-0.361376
-0.335573
-0.310014
-0.284874
-0.260338
-0.23658
-0.21375
-0.191971
-0.171334
-0.151916
-0.133575
-0.117355
-0.588327
-0.535355
-0.513646
-0.483624
-0.458294
-0.432036
-0.406221
-0.380195
-0.354159
-0.328185
-0.30246
-0.277177
-0.252535
-0.228715
-0.205872
-0.18413
-0.16358
-0.144272
-0.126189
-0.109763
-0.578594
-0.526603
-0.505317
-0.475717
-0.45061
-0.424465
-0.398655
-0.372562
-0.346413
-0.320308
-0.294457
-0.26907
-0.244358
-0.220513
-0.197692
-0.176019
-0.155585
-0.136417
-0.118609
-0.102017
-0.568651
-0.517616
-0.49671
-0.467511
-0.442603
-0.416555
-0.390736
-0.364568
-0.338305
-0.312073
-0.286104
-0.260628
-0.235866
-0.212016
-0.189241
-0.16766
-0.147366
-0.128359
-0.110842
-0.0941198
-0.558162
-0.50811
-0.487588
-0.458809
-0.43411
-0.408169
-0.382353
-0.356123
-0.329762
-0.303423
-0.277361
-0.25182
-0.227035
-0.20321
-0.180508
-0.159048
-0.138918
-0.120098
-0.102888
-0.0860715
-0.54696
-0.497954
-0.477846
-0.449522
-0.425058
-0.399248
-0.373457
-0.34719
-0.320756
-0.294338
-0.268211
-0.242637
-0.217861
-0.194091
-0.171493
-0.150183
-0.130245
-0.111638
-0.0947516
-0.0778743
-0.535038
-0.487149
-0.467483
-0.43965
-0.415446
-0.389791
-0.364049
-0.337769
-0.311288
-0.284818
-0.258657
-0.233081
-0.208346
-0.184665
-0.162202
-0.14107
-0.121351
-0.102981
-0.0864363
-0.0695309
-0.522403
-0.475704
-0.456506
-0.429197
-0.405275
-0.3798
-0.354129
-0.32786
-0.301359
-0.274867
-0.248702
-0.223158
-0.198496
-0.174935
-0.152638
-0.131714
-0.112241
-0.0941323
-0.0779466
-0.0610442
-0.50905
-0.463617
-0.44491
-0.418158
-0.394543
-0.369271
-0.343695
-0.317464
-0.290971
-0.264487
-0.238351
-0.21287
-0.188316
-0.164907
-0.142808
-0.122121
-0.102919
-0.0850968
-0.0692874
-0.0524175
-0.494972
-0.450881
-0.432691
-0.406529
-0.383245
-0.358202
-0.332746
-0.306579
-0.280125
-0.25368
-0.227606
-0.202223
-0.17781
-0.154587
-0.132716
-0.112296
-0.0933915
-0.0758791
-0.0604637
-0.0436545
-0.480167
-0.437497
-0.419847
-0.394309
-0.37138
-0.346591
-0.321282
-0.295208
-0.268822
-0.24245
-0.216472
-0.191221
-0.166984
-0.143981
-0.12237
-0.102244
-0.0836635
-0.0664844
-0.0514805
-0.0347593
-0.464634
-0.423462
-0.406377
-0.381496
-0.358947
-0.334438
-0.309303
-0.283352
-0.257066
-0.230801
-0.204954
-0.179872
-0.155845
-0.133095
-0.111775
-0.0919734
-0.0737412
-0.056918
-0.0423428
-0.0257362
-0.448375
-0.408777
-0.392281
-0.368089
-0.345946
-0.321745
-0.296813
-0.271015
-0.244862
-0.218738
-0.193059
-0.168181
-0.1444
-0.121937
-0.100939
-0.0814894
-0.063631
-0.0471858
-0.033057
-0.0165862
-0.431392
-0.393444
-0.37756
-0.354092
-0.332379
-0.308514
-0.283813
-0.2582
-0.232215
-0.206268
-0.180794
-0.156157
-0.132657
-0.110514
-0.0898695
-0.0707994
-0.0533395
-0.0372954
-0.0236403
-0.00730167
-0.413689
-0.377467
-0.362217
-0.339505
-0.318249
-0.294748
-0.270309
-0.244914
-0.219131
-0.193399
-0.168166
-0.143808
-0.120625
-0.0988341
-0.0785738
-0.059911
-0.0428731
-0.0272526
-0.0141113
0.00210783
-0.395274
-0.360849
-0.346257
-0.324334
-0.303561
-0.280453
-0.256306
-0.231163
-0.205619
-0.180138
-0.155185
-0.131142
-0.108311
-0.0869069
-0.0670604
-0.0488318
-0.0322391
-0.0170581
-0.00438601
0.0115496
-0.376154
-0.343597
-0.329684
-0.308582
-0.288319
-0.265634
-0.241811
-0.216954
-0.191686
-0.166495
-0.14186
-0.118169
-0.0957263
-0.0747411
-0.0553382
-0.0375702
-0.0214456
-0.00673839
0.00546608
0.021104
-0.356339
-0.325718
-0.312506
-0.292258
-0.27253
-0.250299
-0.226833
-0.202298
-0.177343
-0.15248
-0.128201
-0.1049
-0.0828804
-0.0623466
-0.0434163
-0.0261345
-0.0104999
0.00371627
0.0154238
0.030763
-0.335839
-0.307222
-0.294732
-0.275368
-0.256203
-0.234457
-0.21138
-0.187203
-0.162599
-0.138104
-0.114219
-0.0913461
-0.0697839
-0.0497334
-0.0313042
-0.0145338
0.000589502
0.0142977
0.0254891
0.0405124
-0.314669
-0.288118
-0.276369
-0.257921
-0.239348
-0.218116
-0.195464
-0.171681
-0.147467
-0.123378
-0.0999272
-0.077518
-0.0564482
-0.0369122
-0.019012
-0.00277715
0.0118139
0.0249965
0.0356581
0.0503442
-0.292842
-0.268419
-0.257431
-0.23993
-0.221973
-0.201289
-0.179095
-0.155744
-0.131958
-0.108315
-0.0853367
-0.0634285
-0.0428849
-0.023894
-0.00654978
0.00912595
0.0231647
0.0358046
0.0459238
0.0602513
-0.270374
-0.248137
-0.237929
-0.221404
-0.204093
-0.183988
-0.162286
-0.139405
-0.116087
-0.0929288
-0.0704613
-0.0490902
-0.0291061
-0.0106903
0.00607162
0.0211656
0.0346329
0.0467136
0.0562788
0.0702263
-0.247283
-0.227287
-0.217878
-0.202359
-0.18572
-0.166226
-0.145052
-0.122678
-0.0998668
-0.0772334
-0.0553146
-0.0345165
-0.0151247
0.0026869
0.0188412
0.0333318
0.0462091
0.0577149
0.066716
0.0802615
-0.223588
-0.205886
-0.197293
-0.182808
-0.166869
-0.148017
-0.127407
-0.105578
-0.0833135
-0.0612436
-0.0399114
-0.0197213
-0.000953719
0.0162254
0.0317476
0.0456138
0.0578839
0.0687997
0.0772277
0.090349
-0.199309
-0.183951
-0.17619
-0.162768
-0.147555
-0.129379
-0.109369
-0.0881207
-0.0664424
-0.0449752
-0.0242666
-0.00471909
0.0133933
0.0299126
0.0447791
0.0580011
0.0696474
0.079959
0.087806
0.100481
-0.17447
-0.1615
-0.154588
-0.142256
-0.127796
-0.110329
-0.0909571
-0.0703201
-0.0492709
-0.0284446
-0.00839599
0.0104753
0.0279022
0.0437354
0.0579236
0.0704824
0.0814894
0.0911834
0.0984426
0.110648
-0.149092
-0.138555
-0.132506
-0.121291
-0.107611
-0.0908835
-0.0721759
-0.0522073
-0.0318164
-0.0116686
0.00768418
0.0258465
0.0425588
0.0576804
0.0711688
0.0830465
0.0933994
0.102463
0.109129
0.120842
-0.123201
-0.115136
-0.109966
-0.0998923
-0.087019
-0.0710629
-0.0530582
-0.033789
-0.014097
0.00533497
0.0239572
0.0413788
0.0573482
0.071734
0.084502
0.0956815
0.105367
0.113788
0.119857
0.131052
-0.0968242
-0.0912664
-0.0869886
-0.0780813
-0.0660403
-0.0508881
-0.0336218
-0.0150865
0.00386822
0.022548
0.0404057
0.0570558
0.0722554
0.0858821
0.0979102
0.108376
0.11738
0.125148
0.130618
0.141269
-0.069988
-0.0669703
-0.0635977
-0.0558805
-0.0446973
-0.03038
-0.0138866
0.0038787
0.0220594
0.0399518
0.0570122
0.0728612
0.087265
0.10011
0.11138
0.121117
0.129429
0.136533
0.141402
0.151481
-0.0427179
-0.0422761
-0.0398177
-0.0333134
-0.0230132
-0.00956105
0.00612571
0.0230852
0.0404562
0.0575271
0.0737584
0.088778
0.102361
0.114405
0.124899
0.133892
0.141501
0.14793
0.1522
0.161675
-0.015038
-0.0172155
-0.0156745
-0.0104046
-0.00101181
0.0115452
0.0263922
0.0425113
0.0590378
0.0752542
0.090626
0.104789
0.117528
0.12875
0.138452
0.146689
0.153584
0.159329
0.163003
0.171836
0.012991
0.00821
0.00880517
0.0128201
0.0212817
0.0329143
0.0468893
0.0621343
0.0777829
0.0931129
0.107596
0.120877
0.13275
0.143131
0.152026
0.159495
0.165667
0.170717
0.173802
0.181946
0.0413642
0.0339495
0.0335933
0.036334
0.0438413
0.0545212
0.0675928
0.0819311
0.0966695
0.111083
0.12465
0.137024
0.14801
0.157534
0.165607
0.172297
0.177737
0.182083
0.184587
0.191983
0.0700478
0.059975
0.0586612
0.0601092
0.06664
0.0763397
0.0884778
0.101878
0.115675
0.129143
0.141767
0.153212
0.163292
0.171942
0.179182
0.185082
0.189782
0.193414
0.195352
0.201921
0.0990068
0.0862581
0.0839793
0.0841168
0.0896499
0.0983431
0.109519
0.121951
0.134777
0.147272
0.15893
0.169424
0.17858
0.186341
0.192735
0.197837
0.201789
0.204697
0.206087
0.211725
0.12821
0.112768
0.109517
0.108327
0.112843
0.120504
0.130689
0.142124
0.153953
0.165448
0.176117
0.18564
0.193857
0.200717
0.206254
0.210549
0.213745
0.21592
0.216787
0.221347
0.157627
0.139475
0.135245
0.132712
0.136189
0.142795
0.151963
0.162375
0.173179
0.183651
0.193309
0.201844
0.209106
0.215052
0.219723
0.223205
0.225638
0.227069
0.227446
0.230723
0.187225
0.166341
0.161127
0.157236
0.159658
0.165186
0.173313
0.182675
0.19243
0.201858
0.210485
0.218017
0.22431
0.229333
0.23313
0.235793
0.237457
0.238137
0.238077
0.239777
0.216946
0.193309
0.187113
0.181856
0.18321
0.187642
0.194706
0.202997
0.211682
0.220046
0.227626
0.23414
0.239454
0.243545
0.246462
0.248302
0.249187
0.249122
0.248724
0.248399
0.246752
0.220331
0.213159
0.206533
0.206808
0.210129
0.216112
0.223313
0.23091
0.238192
0.244711
0.250195
0.254521
0.257673
0.259705
0.260718
0.260818
0.260024
0.259371
0.256357
0.276906
0.247585
0.239386
0.231346
0.230503
0.232675
0.237543
0.243623
0.250105
0.256284
0.261725
0.266166
0.269494
0.271702
0.272845
0.273029
0.272338
0.270827
0.269714
0.262838
0.307991
0.275502
0.266099
0.256509
0.254437
0.255371
0.259052
0.263954
0.269276
0.274319
0.278657
0.282038
0.284357
0.285613
0.285866
0.285222
0.283746
0.281528
0.279424
0.266284
0.338089
0.30273
0.292299
0.281288
0.278077
0.277835
0.28037
0.284121
0.2883
0.292216
0.295456
0.29778
0.299094
0.2994
0.298765
0.297298
0.295054
0.292168
0.289731
0.275123
0.367799
0.329715
0.31831
0.305914
0.301583
0.300173
0.301564
0.30416
0.307192
0.309977
0.312116
0.313381
0.313687
0.313046
0.311525
0.309242
0.306247
0.302704
0.299986
0.285459
0.397375
0.356626
0.344242
0.33046
0.324998
0.322408
0.32264
0.324069
0.325943
0.327589
0.328621
0.328824
0.328123
0.326534
0.324131
0.321036
0.317303
0.313104
0.309912
0.295578
0.426776
0.383407
0.370048
0.354881
0.348281
0.344502
0.343566
0.343819
0.344528
0.345029
0.344952
0.344092
0.342384
0.339851
0.33657
0.332668
0.328204
0.323354
0.319583
0.305316
0.455941
0.409999
0.395671
0.379128
0.371391
0.36642
0.36431
0.363382
0.36292
0.362274
0.361087
0.359166
0.356454
0.352981
0.348828
0.344125
0.338934
0.333435
0.329049
0.314798
0.484831
0.43636
0.421074
0.403167
0.394293
0.388128
0.384842
0.382729
0.381097
0.379303
0.377008
0.37403
0.370319
0.365911
0.360892
0.355392
0.349479
0.343333
0.338309
0.324055
0.513413
0.462453
0.446221
0.426961
0.416954
0.409597
0.405133
0.401836
0.399033
0.396095
0.392696
0.388664
0.383961
0.378627
0.372749
0.366459
0.359828
0.353036
0.347357
0.333076
0.541647
0.488242
0.471075
0.450477
0.439342
0.430795
0.425156
0.420676
0.416706
0.412627
0.40813
0.403054
0.397366
0.391113
0.384385
0.377313
0.369969
0.362533
0.35619
0.341859
0.569496
0.513688
0.495598
0.473678
0.461422
0.451692
0.444881
0.439224
0.434092
0.42888
0.423293
0.417181
0.410519
0.403358
0.395789
0.387943
0.379893
0.371815
0.364807
0.350403
0.596919
0.538753
0.519755
0.49653
0.483163
0.472257
0.464282
0.457454
0.451168
0.444833
0.438167
0.43103
0.423405
0.415347
0.406949
0.398339
0.38959
0.380875
0.373204
0.35871
0.623876
0.5634
0.543509
0.518999
0.504531
0.49246
0.48333
0.475342
0.467913
0.460465
0.452732
0.444584
0.43601
0.427068
0.417852
0.408489
0.399052
0.389706
0.38138
0.36678
0.650329
0.587592
0.566825
0.541049
0.525496
0.512272
0.501999
0.492862
0.484303
0.475757
0.466972
0.457827
0.448319
0.438507
0.428488
0.418385
0.408269
0.398301
0.389328
0.374612
0.676237
0.611291
0.589666
0.562649
0.546024
0.531664
0.520261
0.509991
0.500317
0.49069
0.480869
0.470744
0.460318
0.449654
0.438846
0.428016
0.417234
0.406654
0.397047
0.382203
0.701562
0.634463
0.611997
0.583764
0.566086
0.550606
0.538091
0.526704
0.515934
0.505243
0.494406
0.48332
0.471995
0.460495
0.448916
0.437374
0.425939
0.414758
0.404531
0.389552
0.726265
0.65707
0.633785
0.604363
0.585651
0.569071
0.555463
0.54298
0.531133
0.5194
0.507566
0.495541
0.483336
0.47102
0.458686
0.44645
0.434377
0.422608
0.411777
0.396656
0.750309
0.679079
0.654995
0.624412
0.604688
0.587031
0.572352
0.558794
0.545894
0.533141
0.520334
0.507391
0.494329
0.481217
0.468148
0.455234
0.44254
0.430198
0.41878
0.403512
0.773655
0.700454
0.675594
0.643882
0.62317
0.604461
0.588734
0.574126
0.560198
0.546449
0.532695
0.518858
0.504961
0.491075
0.477292
0.46372
0.450421
0.437521
0.425534
0.410117
0.796269
0.721163
0.69555
0.662742
0.641068
0.621332
0.604584
0.588954
0.574024
0.559308
0.544632
0.529927
0.51522
0.500584
0.486109
0.471898
0.458013
0.444573
0.432037
0.416469
0.818116
0.741172
0.714832
0.680962
0.658354
0.637622
0.619881
0.603258
0.587355
0.5717
0.556131
0.540586
0.525096
0.509733
0.494589
0.479761
0.46531
0.451347
0.438283
0.422562
0.83916
0.76045
0.733409
0.698514
0.675002
0.653304
0.634602
0.617017
0.600173
0.583611
0.567178
0.550822
0.534576
0.518514
0.502724
0.487302
0.472306
0.457838
0.444267
0.428395
0.85937
0.778967
0.751251
0.71537
0.690985
0.668355
0.648726
0.630212
0.61246
0.595024
0.577761
0.560624
0.543651
0.526916
0.510506
0.494513
0.478993
0.464042
0.449985
0.433963
0.878713
0.796693
0.768331
0.731503
0.70628
0.682754
0.662232
0.642825
0.624201
0.605925
0.587864
0.569979
0.55231
0.534931
0.517927
0.501388
0.485367
0.469953
0.455433
0.439263
0.897159
0.8136
0.784621
0.746888
0.720862
0.696477
0.6751
0.654838
0.63538
0.6163
0.597478
0.578878
0.560543
0.542549
0.52498
0.50792
0.491421
0.475565
0.460605
0.444291
0.914679
0.829659
0.800094
0.761501
0.734709
0.709505
0.687311
0.666234
0.645981
0.626136
0.606588
0.587308
0.568342
0.549764
0.531656
0.514101
0.497149
0.480874
0.465498
0.449044
0.931246
0.844847
0.814726
0.775318
0.747799
0.721817
0.698849
0.676998
0.65599
0.63542
0.615185
0.595262
0.575697
0.556566
0.53795
0.519927
0.502547
0.485876
0.470108
0.453518
0.946833
0.859137
0.828494
0.788317
0.760111
0.733396
0.709696
0.687114
0.665394
0.64414
0.623258
0.602728
0.5826
0.562949
0.543855
0.525392
0.507608
0.490565
0.47443
0.457711
0.961414
0.872507
0.841374
0.800477
0.771627
0.744222
0.719835
0.696568
0.67418
0.652285
0.630796
0.609698
0.589043
0.568906
0.549364
0.53049
0.512329
0.494939
0.47846
0.461618
0.974968
0.884935
0.853347
0.811779
0.782329
0.754281
0.729253
0.705347
0.682337
0.659845
0.637791
0.616165
0.595019
0.574429
0.554472
0.535216
0.516705
0.498991
0.482196
0.465237
0.987472
0.896401
0.864392
0.822205
0.792199
0.763556
0.737936
0.713438
0.689853
0.666809
0.644234
0.622119
0.600522
0.579514
0.559173
0.539565
0.520732
0.50272
0.485632
0.468565
0.998907
0.906886
0.874492
0.831737
0.801221
0.772033
0.74587
0.720831
0.696718
0.673169
0.650116
0.627556
0.605544
0.584155
0.563463
0.543532
0.524405
0.506121
0.488767
0.4716
1.00925
0.916372
0.88363
0.84036
0.809383
0.7797
0.753044
0.727513
0.702923
0.678916
0.655431
0.632466
0.61008
0.588346
0.567337
0.547115
0.527721