-0.37194 	0.37194 	1.17961e-17 	0.256227
-0.409303 	0.409303 	7.63278e-18 	0.21399
-0.448053 	0.448053 	1.35308e-17 	0.214565
-0.488244 	0.488244 	2.56739e-17 	0.209218
-0.529927 	0.529927 	3.33067e-17 	0.217277
-0.573159 	0.573159 	3.88578e-17 	0.223923
-0.617998 	0.617998 	3.19189e-17 	0.232482
-0.664503 	0.664503 	-7.63278e-18 	0.239096
