/*--------------------------------*- C++ -*----------------------------------*\
  =========                 |
  \\      /  F ield         | OpenFOAM: The Open Source CFD Toolbox
   \\    /   O peration     | Website:  https://openfoam.org
    \\  /    A nd           | Version:  7
     \\/     M anipulation  |
\*---------------------------------------------------------------------------*/
FoamFile
{
    version     2.0;
    format      ascii;
    class       volScalarField;
    location    "15";
    object      p;
}
// * * * * * * * * * * * * * * * * * * * * * * * * * * * * * * * * * * * * * //

dimensions      [0 2 -2 0 0 0 0];

internalField   nonuniform List<scalar> 
6050
(
-0.325894
-0.327373
-0.328788
-0.330151
-0.331467
-0.332725
-0.33389
-0.334878
-0.335561
-0.3358
-0.335208
-0.333822
-0.330609
-0.326063
-0.327537
-0.328951
-0.330316
-0.33164
-0.332914
-0.334109
-0.335146
-0.335881
-0.336248
-0.335645
-0.334537
-0.330941
-0.326379
-0.327843
-0.329248
-0.330611
-0.331943
-0.333238
-0.334476
-0.335593
-0.336379
-0.337021
-0.33626
-0.335834
-0.331357
-0.326807
-0.328245
-0.329629
-0.330976
-0.332303
-0.333604
-0.33487
-0.336079
-0.336816
-0.337948
-0.336647
-0.337447
-0.331541
-0.327297
-0.32869
-0.330029
-0.331336
-0.332631
-0.33391
-0.33515
-0.336474
-0.33696
-0.338859
-0.33646
-0.33877
-0.331641
-0.329114
-0.330382
-0.331618
-0.332846
-0.334063
-0.3352
-0.336659
-0.336778
-0.339077
-0.336256
-0.33903
-0.331362
-0.329462
-0.330627
-0.33176
-0.332884
-0.334
-0.335019
-0.336419
-0.336249
-0.33876
-0.335283
-0.338358
-0.330475
-0.329684
-0.330717
-0.331717
-0.332702
-0.333676
-0.33452
-0.335798
-0.335271
-0.337715
-0.333773
-0.336361
-0.328811
-0.329742
-0.330619
-0.331458
-0.332275
-0.333062
-0.333678
-0.334701
-0.333871
-0.335672
-0.331708
-0.332794
-0.325836
-0.329613
-0.330311
-0.330966
-0.331578
-0.332123
-0.332451
-0.333016
-0.331932
-0.332501
-0.328725
-0.327671
-0.320941
-0.329283
-0.329779
-0.330219
-0.33057
-0.330798
-0.330717
-0.330626
-0.329143
-0.328204
-0.324343
-0.321139
-0.313992
-0.329007
-0.329182
-0.329184
-0.328981
-0.328301
-0.327387
-0.325193
-0.322796
-0.318365
-0.313401
-0.305444
-0.32797
-0.327795
-0.327319
-0.326516
-0.325031
-0.323138
-0.319957
-0.316287
-0.310981
-0.304791
-0.296117
-0.326624
-0.325966
-0.324853
-0.323237
-0.320789
-0.317791
-0.313531
-0.308808
-0.302626
-0.295718
-0.28664
-0.324896
-0.323585
-0.321658
-0.31904
-0.315546
-0.311412
-0.306176
-0.300634
-0.293791
-0.286601
-0.277299
-0.320548
-0.317647
-0.313922
-0.309393
-0.304211
-0.298216
-0.292064
-0.284819
-0.277653
-0.268328
-0.316792
-0.312813
-0.307988
-0.302514
-0.29646
-0.289935
-0.283316
-0.275909
-0.268951
-0.259698
-0.307236
-0.301412
-0.295134
-0.288414
-0.281531
-0.274524
-0.26713
-0.260334
-0.25133
-0.301059
-0.294383
-0.287455
-0.280259
-0.273118
-0.265802
-0.258499
-0.251547
-0.243025
-0.287068
-0.279631
-0.272108
-0.264761
-0.257256
-0.250014
-0.242533
-0.234652
-0.279591
-0.271765
-0.264011
-0.256502
-0.248928
-0.241681
-0.233873
-0.226234
-0.263909
-0.255986
-0.248366
-0.240776
-0.233464
-0.225823
-0.218523
-0.256086
-0.248038
-0.240348
-0.232758
-0.22551
-0.21804
-0.211045
-0.240159
-0.232427
-0.224886
-0.217721
-0.210446
-0.203858
-0.224587
-0.217114
-0.210071
-0.203041
-0.196747
-0.209418
-0.202512
-0.195707
-0.18971
-0.195001
-0.188431
-0.182687
-0.181159
-0.175653
-0.181159
-0.175653
-0.195001
-0.188431
-0.182687
-0.209418
-0.202512
-0.195707
-0.18971
-0.224587
-0.217114
-0.210071
-0.203041
-0.196747
-0.240159
-0.232427
-0.224886
-0.217721
-0.210445
-0.203858
-0.256086
-0.248038
-0.240348
-0.232758
-0.22551
-0.21804
-0.211045
-0.263909
-0.255986
-0.248366
-0.240776
-0.233464
-0.225823
-0.218523
-0.279591
-0.271765
-0.264011
-0.256502
-0.248928
-0.241681
-0.233873
-0.226234
-0.287068
-0.279631
-0.272108
-0.264761
-0.257256
-0.250014
-0.242533
-0.234652
-0.301059
-0.294383
-0.287455
-0.280259
-0.273118
-0.265802
-0.258499
-0.251547
-0.243024
-0.307236
-0.301412
-0.295134
-0.288414
-0.281531
-0.274524
-0.26713
-0.260334
-0.25133
-0.316792
-0.312813
-0.307988
-0.302514
-0.29646
-0.289935
-0.283315
-0.275908
-0.268951
-0.259698
-0.320548
-0.317647
-0.313922
-0.309393
-0.304211
-0.298216
-0.292064
-0.284819
-0.277653
-0.268328
-0.324896
-0.323585
-0.321658
-0.31904
-0.315546
-0.311412
-0.306176
-0.300634
-0.293791
-0.2866
-0.277299
-0.326624
-0.325966
-0.324853
-0.323237
-0.320789
-0.317791
-0.313531
-0.308808
-0.302626
-0.295718
-0.28664
-0.327971
-0.327795
-0.327319
-0.326516
-0.325031
-0.323138
-0.319957
-0.316287
-0.31098
-0.30479
-0.296117
-0.329007
-0.329182
-0.329184
-0.328981
-0.328301
-0.327387
-0.325193
-0.322796
-0.318365
-0.313401
-0.305444
-0.329283
-0.329779
-0.330219
-0.33057
-0.330798
-0.330717
-0.330626
-0.329143
-0.328204
-0.324343
-0.321139
-0.313991
-0.329613
-0.330311
-0.330966
-0.331578
-0.332123
-0.332451
-0.333016
-0.331932
-0.332501
-0.328725
-0.327671
-0.320941
-0.329742
-0.330619
-0.331459
-0.332275
-0.333062
-0.333678
-0.334701
-0.333871
-0.335672
-0.331707
-0.332794
-0.325836
-0.329684
-0.330717
-0.331717
-0.332702
-0.333676
-0.33452
-0.335798
-0.33527
-0.337715
-0.333773
-0.336361
-0.328811
-0.329462
-0.330627
-0.33176
-0.332884
-0.334
-0.335019
-0.336418
-0.336249
-0.33876
-0.335283
-0.338358
-0.330475
-0.329114
-0.330382
-0.331618
-0.332846
-0.334063
-0.335199
-0.336659
-0.336777
-0.339077
-0.336256
-0.33903
-0.331362
-0.327297
-0.32869
-0.330029
-0.331336
-0.332631
-0.33391
-0.33515
-0.336474
-0.33696
-0.338859
-0.33646
-0.33877
-0.331641
-0.326807
-0.328245
-0.329629
-0.330976
-0.332303
-0.333604
-0.33487
-0.336079
-0.336816
-0.337948
-0.336647
-0.337447
-0.331541
-0.326379
-0.327843
-0.329248
-0.330611
-0.331943
-0.333238
-0.334476
-0.335593
-0.336379
-0.337021
-0.33626
-0.335833
-0.331357
-0.326063
-0.327537
-0.328951
-0.330316
-0.33164
-0.332914
-0.334109
-0.335146
-0.335881
-0.336248
-0.335645
-0.334537
-0.330941
-0.325894
-0.327373
-0.328788
-0.330151
-0.331467
-0.332725
-0.33389
-0.334878
-0.335561
-0.3358
-0.335208
-0.333822
-0.330609
-0.328013
-0.325127
-0.321358
-0.31652
-0.310428
-0.302903
-0.293791
-0.282967
-0.27034
-0.255873
-0.239594
-0.221616
-0.202138
-0.181449
-0.159922
-0.138022
-0.116236
-0.0950563
-0.0749766
-0.056436
-0.0397579
-0.0251928
-0.0128706
-0.00280333
0.00509857
0.0110062
0.0151476
0.0177825
0.0191794
0.0195962
0.0192702
0.018411
0.0171934
0.0157602
0.0142209
0.0126622
0.0111404
0.00970735
0.00837424
0.00718138
0.00608721
0.00515795
0.0042765
0.00358985
0.00286635
0.0023896
0.0017706
0.00145035
0.000841872
0.000566874
-0.328982
-0.326224
-0.322619
-0.317891
-0.311911
-0.304497
-0.295485
-0.284757
-0.272212
-0.257809
-0.241573
-0.223612
-0.204128
-0.183419
-0.161839
-0.139864
-0.117977
-0.0966481
-0.0764744
-0.0578136
-0.0410179
-0.0263383
-0.0139051
-0.00373247
0.00426812
0.0102673
0.0144933
0.0172061
0.0186747
0.0191583
0.0188918
0.0180854
0.0169147
0.0155226
0.0140192
0.0124913
0.0109962
0.00958545
0.00827213
0.0070955
0.00601605
0.00509826
0.00422742
0.00354827
0.00283223
0.0023597
0.0017475
0.00142844
0.00082908
0.000551007
-0.330512
-0.32791
-0.324535
-0.320048
-0.314296
-0.307108
-0.298308
-0.287775
-0.275398
-0.261135
-0.245005
-0.227111
-0.207655
-0.186906
-0.165202
-0.143134
-0.121121
-0.0996741
-0.0793059
-0.060453
-0.0434624
-0.0285862
-0.0159583
-0.00559575
0.00258819
0.00876283
0.0131551
0.0160241
0.0176384
0.0182576
0.0181149
0.0174181
0.0163445
0.0150376
0.0136087
0.0121444
0.0107043
0.00933965
0.00806672
0.00692329
0.00587369
0.00497921
0.0041299
0.00346585
0.00276519
0.00230103
0.00170265
0.00138596
0.000804488
0.000520843
-0.33255
-0.329675
-0.32653
-0.322337
-0.31686
-0.309985
-0.301343
-0.291103
-0.278972
-0.26493
-0.248987
-0.231239
-0.211873
-0.191184
-0.169543
-0.147421
-0.125309
-0.103734
-0.0832044
-0.0641624
-0.046963
-0.0318615
-0.0189962
-0.00838862
4.37098e-05
0.00646578
0.0111003
0.0142023
0.0160379
0.0168636
0.0169136
0.0163885
0.0154669
0.0142932
0.0129804
0.0116155
0.0102608
0.00896773
0.00775688
0.00666462
0.00566048
0.00480165
0.00398521
0.00334407
0.00266731
0.00221563
0.00163839
0.00132528
0.000769826
0.000479239
-0.333392
-0.331062
-0.327889
-0.323912
-0.318746
-0.312145
-0.303933
-0.293989
-0.282181
-0.268448
-0.252795
-0.235313
-0.216178
-0.195668
-0.174168
-0.152136
-0.130065
-0.108476
-0.0878777
-0.0687161
-0.0513532
-0.0360477
-0.0229424
-0.0120654
-0.00334202
0.00338423
0.00832752
0.0117344
0.0138638
0.0149677
0.0152771
0.0149883
0.0142753
0.0132845
0.0121311
0.0109028
0.00966505
0.00847012
0.0073435
0.00632089
0.00537792
0.00456731
0.00379529
0.00318499
0.00254116
0.00210614
0.00155748
0.00124945
0.000727146
0.000429823
-0.333094
-0.33144
-0.328321
-0.324454
-0.319539
-0.313235
-0.305348
-0.295756
-0.284332
-0.270999
-0.255753
-0.238674
-0.21993
-0.199787
-0.178617
-0.156861
-0.135007
-0.113567
-0.0930406
-0.0738762
-0.056437
-0.0409846
-0.0276672
-0.0165216
-0.00748511
-0.000414559
0.00489047
0.00866346
0.011151
0.0125971
0.0132262
0.0132334
0.0127832
0.0120226
0.0110696
0.0100138
0.00892323
0.00785232
0.00683124
0.00589622
0.00502941
0.00427924
0.00356285
0.00299124
0.00238941
0.00197543
0.00146258
0.00116169
0.000678432
0.000376392
-0.331392
-0.330121
-0.327313
-0.323619
-0.318891
-0.312841
-0.305282
-0.296066
-0.285058
-0.272181
-0.257435
-0.240898
-0.222723
-0.203147
-0.182515
-0.161248
-0.139817
-0.118715
-0.0984299
-0.0794027
-0.061997
-0.0464759
-0.0329939
-0.0215993
-0.0122453
-0.00480736
0.000896074
0.00508083
0.00797723
0.0098163
0.0108152
0.0111653
0.0110246
0.0105352
0.00981804
0.00896586
0.00804932
0.00712555
0.0062291
0.00539781
0.00462061
0.003942
0.00329144
0.00276603
0.00221469
0.00182636
0.00135594
0.00106496
0.000625328
0.000322355
-0.328157
-0.326922
-0.324577
-0.321156
-0.316573
-0.310721
-0.303477
-0.294666
-0.28413
-0.271789
-0.25764
-0.241749
-0.224269
-0.205445
-0.185586
-0.165047
-0.144259
-0.123691
-0.103817
-0.08507
-0.0678127
-0.0523092
-0.0387205
-0.027109
-0.0174483
-0.00963639
-0.00351537
0.00110892
0.00444756
0.00671516
0.00811864
0.00884346
0.00904729
0.00886156
0.00840804
0.00778417
0.00706317
0.00630548
0.00554949
0.00483547
0.0041591
0.00356154
0.00298547
0.00251302
0.00201957
0.0016616
0.00123928
0.000961781
0.000569043
0.000270335
-0.323364
-0.321686
-0.319832
-0.316818
-0.312405
-0.306737
-0.299825
-0.291464
-0.281459
-0.269732
-0.256288
-0.241184
-0.22455
-0.206605
-0.187663
-0.168074
-0.14816
-0.128323
-0.109019
-0.0906836
-0.0736815
-0.0582794
-0.0446451
-0.0328571
-0.0229125
-0.0147356
-0.00819507
-0.00312147
0.000674722
0.00339019
0.00521785
0.0063371
0.00690316
0.00704442
0.00687489
0.00649687
0.00598711
0.00540974
0.00480645
0.00422023
0.00365355
0.0031446
0.00264989
0.00223622
0.00180659
0.00148366
0.00111394
0.000854049
0.000510382
0.000221991
-0.316672
-0.314374
-0.313076
-0.310569
-0.306367
-0.30092
-0.294396
-0.286551
-0.277151
-0.266129
-0.253497
-0.2393
-0.223643
-0.206722
-0.188819
-0.170279
-0.151415
-0.132495
-0.113907
-0.096094
-0.0794368
-0.0642101
-0.0505894
-0.0386699
-0.0284737
-0.0199537
-0.013007
-0.00749036
-0.00323746
-7.02168e-05
0.00218866
0.00370997
0.00464405
0.00512269
0.00525126
0.005131
0.00484286
0.00445548
0.00401369
0.00356301
0.00311262
0.00269805
0.00228981
0.00193968
0.0015783
0.00129479
0.000980988
0.000743137
0.000449846
0.000178057
-0.307935
-0.305158
-0.304559
-0.302621
-0.298691
-0.293552
-0.287501
-0.280246
-0.271527
-0.261295
-0.249566
-0.23637
-0.221789
-0.205991
-0.189219
-0.171789
-0.15403
-0.136148
-0.1184
-0.101201
-0.0849585
-0.069968
-0.0564148
-0.0444098
-0.0340007
-0.0251693
-0.0178414
-0.0119006
-0.00720439
-0.00359387
-0.000907415
0.00101476
0.0023176
0.00313104
0.00356335
0.00370899
0.00364923
0.0034578
0.00318333
0.00287353
0.00254418
0.0022282
0.00191007
0.00162729
0.00133716
0.00109703
0.000841386
0.000629973
0.000387751
0.000138534
-0.29772
-0.294708
-0.294888
-0.29353
-0.289933
-0.285196
-0.279693
-0.273076
-0.265087
-0.255697
-0.244922
-0.232772
-0.219311
-0.204676
-0.189077
-0.172784
-0.156113
-0.139295
-0.122461
-0.105947
-0.0901738
-0.0754668
-0.0620275
-0.0499821
-0.0394017
-0.0302962
-0.0226195
-0.0162818
-0.0111642
-0.00712724
-0.00402504
-0.00170938
-4.27269e-05
0.00110228
0.00183295
0.00224702
0.00242044
0.00242884
0.00232532
0.00215981
0.00195478
0.00174047
0.00151491
0.00130248
0.00108546
0.000892176
0.000696022
0.000515166
0.000324318
0.000102931
-0.287063
-0.283831
-0.284694
-0.283882
-0.28069
-0.276452
-0.271546
-0.265588
-0.258346
-0.249814
-0.239994
-0.228885
-0.216531
-0.203045
-0.1886
-0.173426
-0.157809
-0.142004
-0.126098
-0.110313
-0.0950486
-0.0806617
-0.0673752
-0.0553307
-0.0446205
-0.0352803
-0.0272909
-0.020588
-0.0150757
-0.010634
-0.00713286
-0.00443579
-0.0024136
-0.000942807
8.18723e-05
0.000758564
0.00116598
0.00137696
0.00144706
0.00142811
0.0013496
0.00123917
0.00110785
0.000968148
0.000825253
0.000681766
0.000545744
0.000399109
0.000259718
7.04971e-05
-0.276862
-0.273349
-0.274682
-0.274326
-0.271566
-0.267865
-0.263552
-0.258231
-0.251715
-0.24401
-0.235107
-0.224989
-0.213689
-0.201294
-0.187948
-0.173842
-0.159227
-0.144357
-0.129346
-0.114303
-0.0995756
-0.0855377
-0.0724362
-0.0604297
-0.049629
-0.0400929
-0.0318274
-0.0247923
-0.0189139
-0.0140915
-0.0102106
-0.00714691
-0.00477985
-0.00299102
-0.00167744
-0.000741942
-0.000105352
0.00030764
0.00055318
0.000682669
0.000732384
0.000727582
0.000691605
0.000626563
0.000558257
0.000467051
0.000391334
0.000282052
0.000194107
4.04058e-05
-0.267183
-0.263881
-0.265411
-0.265236
-0.262869
-0.25972
-0.255975
-0.251256
-0.245431
-0.238508
-0.230461
-0.221266
-0.210944
-0.199563
-0.187236
-0.174128
-0.160447
-0.146439
-0.132256
-0.11794
-0.103765
-0.0900988
-0.077209
-0.0652724
-0.0544169
-0.0447217
-0.0362153
-0.0288806
-0.022665
-0.0174864
-0.013246
-0.0098317
-0.00713188
-0.00503397
-0.00343787
-0.00224781
-0.00138437
-0.000772544
-0.000352705
-7.3895e-05
0.000105451
0.000207856
0.000268096
0.000279393
0.000285816
0.000248994
0.000233473
0.000164144
0.000127635
1.18594e-05
-0.258569
-0.255507
-0.256799
-0.256682
-0.254739
-0.252124
-0.248892
-0.244725
-0.239544
-0.233345
-0.226088
-0.217746
-0.208328
-0.197884
-0.186501
-0.174318
-0.161511
-0.148303
-0.134874
-0.121254
-0.107634
-0.0943571
-0.081702
-0.0698633
-0.0589852
-0.0491646
-0.0404506
-0.0328475
-0.0263227
-0.0208122
-0.0162326
-0.0124841
-0.00946415
-0.00706668
-0.00519492
-0.0037553
-0.00266806
-0.00185889
-0.00126569
-0.000838236
-0.000529061
-0.000318323
-0.000161222
-7.20982e-05
9.02026e-06
2.83617e-05
7.27603e-05
4.54689e-05
6.04414e-05
-1.5855e-05
-0.250429
-0.247822
-0.249201
-0.248964
-0.247319
-0.245192
-0.242432
-0.238776
-0.234189
-0.228649
-0.222109
-0.214538
-0.205937
-0.196342
-0.185819
-0.174481
-0.162479
-0.150007
-0.137258
-0.124285
-0.111211
-0.0983347
-0.0859332
-0.0742164
-0.0633439
-0.0534282
-0.0445369
-0.036694
-0.0298861
-0.0240667
-0.019167
-0.0151002
-0.0117725
-0.0090851
-0.00694476
-0.00526087
-0.00395344
-0.00294935
-0.00218384
-0.00160789
-0.00116869
-0.000848967
-0.000594773
-0.000426631
-0.000271058
-0.000194089
-9.0212e-05
-7.38543e-05
-7.36732e-06
-4.33536e-05
-0.243228
-0.241146
-0.242155
-0.241606
-0.240255
-0.238553
-0.236209
-0.233041
-0.229024
-0.224116
-0.218263
-0.211429
-0.203608
-0.194817
-0.185107
-0.174569
-0.16333
-0.151556
-0.13943
-0.127054
-0.114507
-0.102035
-0.0899015
-0.0783269
-0.067485
-0.0575023
-0.0484628
-0.0404087
-0.0333443
-0.0272398
-0.0220409
-0.0176729
-0.0140516
-0.0110851
-0.00868439
-0.00676229
-0.00523892
-0.0040428
-0.00310662
-0.00238285
-0.00181369
-0.00138426
-0.00103261
-0.000784169
-0.000554259
-0.000418169
-0.000255257
-0.00019372
-7.57987e-05
-7.12049e-05
-0.236729
-0.235308
-0.235967
-0.235497
-0.23439
-0.232986
-0.230977
-0.228219
-0.22467
-0.220281
-0.215
-0.208789
-0.201632
-0.193535
-0.184536
-0.174703
-0.164143
-0.153001
-0.141446
-0.129611
-0.11757
-0.105509
-0.0936598
-0.0822481
-0.0714611
-0.0614383
-0.0522782
-0.0440392
-0.0367419
-0.0303725
-0.0248907
-0.0202343
-0.0163284
-0.0130892
-0.0104321
-0.00827407
-0.00653563
-0.0051474
-0.00403986
-0.00316711
-0.00246691
-0.00192632
-0.00147647
-0.00114605
-0.000841484
-0.000644323
-0.00042253
-0.000314074
-0.000144738
-0.000100004
-0.231296
-0.230076
-0.229556
-0.228678
-0.227706
-0.22663
-0.225049
-0.22281
-0.219836
-0.216065
-0.211446
-0.205937
-0.199513
-0.19217
-0.183932
-0.174849
-0.165007
-0.154517
-0.143517
-0.132153
-0.120558
-0.108897
-0.0973422
-0.0861066
-0.0753842
-0.0653278
-0.0560518
-0.0476316
-0.0401046
-0.0334736
-0.0277121
-0.0227708
-0.0185838
-0.0150757
-0.0121656
-0.00977489
-0.00782412
-0.00624608
-0.00496856
-0.00394783
-0.00311714
-0.00246599
-0.00191857
-0.00150663
-0.00112805
-0.00086987
-0.000589483
-0.000434288
-0.000212643
-0.000130339
-0.227585
-0.22781
-0.226509
-0.225816
-0.22495
-0.223592
-0.221976
-0.219814
-0.216966
-0.213363
-0.208947
-0.203672
-0.197511
-0.190457
-0.182529
-0.173773
-0.164266
-0.154112
-0.143443
-0.1324
-0.121106
-0.109715
-0.0984021
-0.0873708
-0.0768056
-0.0668574
-0.0576415
-0.0492374
-0.0416875
-0.0350015
-0.0291595
-0.0241195
-0.0198213
-0.0161962
-0.0131667
-0.0106602
-0.00859816
-0.00691866
-0.00554685
-0.00444275
-0.00353378
-0.00281464
-0.00220394
-0.00174052
-0.00131415
-0.00101914
-0.000700336
-0.000517149
-0.000257465
-0.000152698
-0.224326
-0.225043
-0.22364
-0.222866
-0.222076
-0.220922
-0.219365
-0.217256
-0.214478
-0.210963
-0.206654
-0.201507
-0.195497
-0.188616
-0.180882
-0.172338
-0.163058
-0.153141
-0.14271
-0.131902
-0.120838
-0.109667
-0.0985614
-0.0877142
-0.0773033
-0.0674768
-0.0583494
-0.0500018
-0.0424791
-0.0357951
-0.0299338
-0.0248583
-0.0205124
-0.0168319
-0.0137423
-0.0111746
-0.00905176
-0.00731468
-0.00588836
-0.00473495
-0.00378022
-0.00302109
-0.00237374
-0.00187954
-0.00142484
-0.00110666
-0.000765284
-0.000564084
-0.000283673
-0.000164515
-0.220701
-0.221901
-0.220564
-0.219819
-0.219142
-0.218052
-0.216509
-0.214428
-0.211704
-0.208264
-0.204055
-0.199034
-0.193173
-0.186468
-0.178935
-0.170613
-0.161571
-0.151904
-0.141727
-0.13117
-0.120355
-0.109427
-0.0985504
-0.0879096
-0.0776754
-0.0679923
-0.0589741
-0.050702
-0.0432237
-0.0365564
-0.0306885
-0.0255876
-0.021202
-0.017472
-0.0143266
-0.0117002
-0.00951794
-0.00772323
-0.0062418
-0.00503778
-0.00403641
-0.00323611
-0.0025514
-0.00202498
-0.001541
-0.00119785
-0.000833222
-0.000612267
-0.000311362
-0.000175936
-0.217109
-0.218698
-0.217492
-0.216764
-0.216167
-0.215132
-0.213614
-0.211569
-0.208903
-0.205545
-0.201441
-0.196548
-0.190843
-0.184317
-0.176986
-0.168888
-0.160088
-0.150672
-0.140751
-0.130448
-0.119884
-0.109199
-0.0985527
-0.0881189
-0.0780622
-0.0685238
-0.0596159
-0.0514207
-0.0439878
-0.0373379
-0.0314637
-0.0263374
-0.0219118
-0.0181315
-0.0149292
-0.0122429
-0.00999979
-0.00814591
-0.00660781
-0.00535164
-0.00430217
-0.00345925
-0.00273591
-0.00217601
-0.00166172
-0.00129255
-0.000903888
-0.000662261
-0.000340304
-0.00018733
-0.213444
-0.215408
-0.214374
-0.213647
-0.213108
-0.212147
-0.210674
-0.208675
-0.206076
-0.202805
-0.19881
-0.19405
-0.188502
-0.182158
-0.175033
-0.16716
-0.158601
-0.149438
-0.139774
-0.129727
-0.119415
-0.108976
-0.0985604
-0.0883349
-0.0784575
-0.0690657
-0.0602701
-0.0521535
-0.0447676
-0.0381366
-0.0322569
-0.0271057
-0.02264
-0.018809
-0.0155491
-0.0128018
-0.0104966
-0.00858218
-0.00698604
-0.0056763
-0.00457734
-0.00369042
-0.00292719
-0.00233262
-0.00178702
-0.00139087
-0.000977337
-0.000714169
-0.000370495
-0.000198747
-0.209703
-0.21202
-0.211181
-0.210457
-0.209967
-0.209088
-0.207674
-0.205729
-0.2032
-0.200021
-0.196139
-0.191515
-0.186127
-0.179967
-0.173048
-0.165402
-0.157087
-0.148178
-0.138773
-0.128985
-0.11893
-0.108738
-0.0985557
-0.0885414
-0.0788466
-0.0696049
-0.0609252
-0.0528908
-0.0455551
-0.0389456
-0.0330627
-0.0278881
-0.0233832
-0.019502
-0.0161844
-0.0133756
-0.0110075
-0.00903157
-0.0073762
-0.00601161
-0.00486186
-0.00392965
-0.00312535
-0.00249494
-0.00191702
-0.00149285
-0.00105363
-0.000767951
-0.000401976
-0.000210141
-0.205946
-0.208546
-0.207912
-0.207206
-0.206755
-0.205959
-0.204614
-0.202731
-0.200278
-0.197194
-0.193428
-0.188944
-0.183718
-0.177744
-0.171033
-0.163616
-0.155544
-0.146891
-0.137749
-0.128222
-0.118425
-0.108483
-0.0985364
-0.088736
-0.0792269
-0.0701386
-0.0615786
-0.0536299
-0.0463477
-0.0397627
-0.033879
-0.0286829
-0.0241402
-0.0202095
-0.0168343
-0.0139638
-0.0115321
-0.00949375
-0.00777808
-0.0063574
-0.00515567
-0.00417688
-0.00333038
-0.00266295
-0.00205176
-0.0015985
-0.0011328
-0.000823575
-0.00043477
-0.000221487
-0.202183
-0.204994
-0.204574
-0.203902
-0.203483
-0.202769
-0.201501
-0.199687
-0.197314
-0.19433
-0.190684
-0.186341
-0.18128
-0.175494
-0.168992
-0.161804
-0.153978
-0.145582
-0.136702
-0.127439
-0.117902
-0.108212
-0.098503
-0.0889186
-0.0795978
-0.0706662
-0.062229
-0.0543694
-0.0471441
-0.0405864
-0.0347045
-0.0294888
-0.0249097
-0.0209303
-0.0174979
-0.0145656
-0.0120699
-0.00996827
-0.00819135
-0.00671344
-0.00545858
-0.004432
-0.0035422
-0.00283658
-0.00219117
-0.00170776
-0.00121481
-0.000881016
-0.000468884
-0.000232773
-0.198402
-0.201377
-0.201173
-0.20055
-0.20016
-0.199522
-0.19834
-0.196603
-0.194314
-0.191433
-0.187911
-0.183713
-0.178818
-0.173221
-0.16693
-0.159972
-0.152392
-0.144253
-0.135636
-0.126638
-0.117362
-0.107925
-0.098455
-0.0890884
-0.0799582
-0.0711859
-0.0628748
-0.0551075
-0.0479422
-0.0414149
-0.0355373
-0.0303042
-0.0256903
-0.0216632
-0.0181742
-0.01518
-0.0126201
-0.0104545
-0.00861552
-0.00707934
-0.0057703
-0.00469477
-0.00376065
-0.00301572
-0.00233519
-0.00182057
-0.00129966
-0.000940231
-0.000504312
-0.000243991
-0.194607
-0.197707
-0.197714
-0.197156
-0.196794
-0.196228
-0.195137
-0.193484
-0.191285
-0.188511
-0.185115
-0.181063
-0.176337
-0.17093
-0.16485
-0.158122
-0.150787
-0.142906
-0.134553
-0.125819
-0.116805
-0.107622
-0.0983918
-0.0892443
-0.0803065
-0.0716961
-0.0635139
-0.0558421
-0.0487399
-0.042246
-0.0363754
-0.0311272
-0.0264802
-0.0224067
-0.0188617
-0.015806
-0.0131816
-0.0109517
-0.00904997
-0.00745462
-0.00609047
-0.0049649
-0.0039855
-0.00320019
-0.00248369
-0.00193683
-0.00138727
-0.00100116
-0.000541033
-0.000255139
-0.19081
-0.193997
-0.194205
-0.193727
-0.193394
-0.192897
-0.191899
-0.190337
-0.188233
-0.185567
-0.1823
-0.178398
-0.173841
-0.168625
-0.162756
-0.156258
-0.149168
-0.141543
-0.133453
-0.124984
-0.116232
-0.107303
-0.0983129
-0.0893853
-0.0806415
-0.072195
-0.0641443
-0.0565709
-0.0495349
-0.0430774
-0.0372166
-0.0319556
-0.0272775
-0.023159
-0.0195591
-0.0164423
-0.0137536
-0.011459
-0.00949395
-0.00783866
-0.00641858
-0.005242
-0.00421645
-0.00338972
-0.00263648
-0.00205639
-0.00147755
-0.00106372
-0.000579009
-0.000266216
-0.187017
-0.190258
-0.190656
-0.19027
-0.189971
-0.189538
-0.188634
-0.187169
-0.185164
-0.182611
-0.179474
-0.175723
-0.171337
-0.166311
-0.160653
-0.154384
-0.147538
-0.140168
-0.132341
-0.124135
-0.115644
-0.106968
-0.0982181
-0.0895106
-0.0809617
-0.0726808
-0.0647638
-0.0572915
-0.0503248
-0.0439066
-0.0380584
-0.0327871
-0.0280801
-0.0239182
-0.0202644
-0.0170872
-0.0143345
-0.0119752
-0.00994652
-0.00823068
-0.00675401
-0.00552554
-0.00445308
-0.003584
-0.00279332
-0.00217905
-0.00157037
-0.00112781
-0.000618183
-0.000277229
-0.183234
-0.186501
-0.187078
-0.186793
-0.186536
-0.186163
-0.185352
-0.183989
-0.182087
-0.179648
-0.176645
-0.173045
-0.16883
-0.163995
-0.158547
-0.152505
-0.145901
-0.138784
-0.131217
-0.123274
-0.115042
-0.106619
-0.0981073
-0.0896195
-0.081266
-0.0731518
-0.0653705
-0.0580017
-0.0511069
-0.0447309
-0.0388981
-0.0336192
-0.0288854
-0.024682
-0.0209758
-0.0177391
-0.0149228
-0.0124989
-0.0104066
-0.00862975
-0.00709597
-0.00581489
-0.00469488
-0.0037826
-0.00295388
-0.00230455
-0.00166556
-0.00119328
-0.000658472
-0.000288188
-0.179473
-0.18274
-0.183483
-0.183308
-0.183099
-0.182785
-0.182064
-0.180806
-0.179011
-0.176689
-0.173819
-0.170371
-0.166328
-0.161683
-0.156443
-0.150626
-0.144262
-0.137396
-0.130086
-0.122403
-0.114428
-0.106254
-0.0979805
-0.0897115
-0.0815531
-0.0736064
-0.0659621
-0.0586989
-0.0518786
-0.0455476
-0.039733
-0.0344491
-0.0296909
-0.0254479
-0.0216909
-0.0183959
-0.0155169
-0.0130287
-0.0108727
-0.00903473
-0.00744354
-0.00610926
-0.00494121
-0.00398502
-0.00311776
-0.00243256
-0.00176288
-0.00125999
-0.000699767
-0.000299106
-0.175747
-0.17899
-0.179884
-0.179826
-0.179672
-0.179415
-0.178783
-0.17763
-0.175946
-0.173743
-0.171006
-0.167711
-0.163839
-0.159383
-0.154349
-0.148754
-0.142626
-0.136007
-0.128951
-0.121524
-0.113804
-0.105877
-0.097838
-0.0897861
-0.081822
-0.0740428
-0.0665365
-0.0593806
-0.052637
-0.0463536
-0.04056
-0.0352737
-0.0304937
-0.0262133
-0.0224072
-0.0190552
-0.0161145
-0.0135627
-0.0113435
-0.00944428
-0.00779557
-0.00640773
-0.00519131
-0.00419061
-0.00328446
-0.00256271
-0.00186203
-0.00132772
-0.000741929
-0.000309997
-0.172071
-0.175267
-0.176298
-0.17636
-0.176269
-0.17607
-0.175522
-0.174474
-0.172903
-0.17082
-0.168218
-0.165074
-0.161371
-0.157101
-0.152271
-0.146895
-0.140999
-0.134623
-0.127816
-0.120642
-0.113172
-0.105488
-0.0976806
-0.0898433
-0.0820718
-0.0744595
-0.0670916
-0.0600442
-0.0533791
-0.0471457
-0.0413757
-0.0360898
-0.0312904
-0.026975
-0.0231219
-0.0197146
-0.0167134
-0.0140988
-0.011817
-0.00985685
-0.00815075
-0.00670917
-0.00544425
-0.00439862
-0.00345337
-0.00269451
-0.00196267
-0.00139625
-0.000784786
-0.000320873
-0.168462
-0.17159
-0.17274
-0.172925
-0.172904
-0.172763
-0.172297
-0.171352
-0.169894
-0.167932
-0.165464
-0.16247
-0.158934
-0.154848
-0.150218
-0.145056
-0.139388
-0.133249
-0.126687
-0.119759
-0.112534
-0.105089
-0.0975091
-0.089883
-0.0823018
-0.074855
-0.0676252
-0.060687
-0.054102
-0.0479206
-0.0421766
-0.0368936
-0.0320776
-0.0277296
-0.0238317
-0.0203709
-0.0173109
-0.0146347
-0.0122911
-0.0102706
-0.00850749
-0.00701224
-0.00569891
-0.00460814
-0.00362375
-0.0028274
-0.00206435
-0.00146528
-0.000828128
-0.00033174
-0.164936
-0.167977
-0.169231
-0.169538
-0.169593
-0.169512
-0.169123
-0.16828
-0.166935
-0.165094
-0.162758
-0.159912
-0.15654
-0.152634
-0.148199
-0.143246
-0.1378
-0.131892
-0.125568
-0.118881
-0.111895
-0.104683
-0.0973249
-0.0899056
-0.0825114
-0.075228
-0.0681352
-0.0613062
-0.0548023
-0.0486746
-0.0429588
-0.0376814
-0.0328514
-0.0284733
-0.0245331
-0.0210209
-0.0179039
-0.0151675
-0.0127634
-0.0106834
-0.00886398
-0.00731542
-0.00595399
-0.00481812
-0.00379474
-0.0029607
-0.00216656
-0.0015345
-0.000871708
-0.000342594
-0.161513
-0.164451
-0.165791
-0.166218
-0.166355
-0.166334
-0.16602
-0.165273
-0.16404
-0.162319
-0.160113
-0.157412
-0.1542
-0.15047
-0.146224
-0.141475
-0.136243
-0.13056
-0.124466
-0.118011
-0.111257
-0.104271
-0.0971295
-0.0899117
-0.0827003
-0.0755771
-0.0686196
-0.0618992
-0.0554767
-0.049404
-0.0437185
-0.0384489
-0.0336074
-0.029202
-0.025222
-0.0216608
-0.0184889
-0.0156942
-0.0132311
-0.0110928
-0.00921808
-0.00761688
-0.00620799
-0.00502729
-0.00396531
-0.00309363
-0.00226865
-0.0016035
-0.000915237
-0.000353417
-0.158214
-0.161034
-0.162443
-0.162986
-0.163207
-0.16325
-0.163007
-0.162352
-0.161226
-0.159624
-0.157546
-0.154985
-0.151928
-0.148367
-0.144305
-0.139752
-0.134727
-0.12926
-0.123387
-0.117157
-0.110626
-0.103859
-0.0969253
-0.0899025
-0.0828683
-0.0759014
-0.0690764
-0.0624631
-0.0561217
-0.0501048
-0.044451
-0.0391915
-0.0343412
-0.0299111
-0.0258939
-0.0222864
-0.019062
-0.0162113
-0.0136911
-0.011496
-0.00956736
-0.00791455
-0.00645911
-0.0052342
-0.00413427
-0.00322527
-0.00236992
-0.00167182
-0.000958382
-0.000364172
-0.15506
-0.15775
-0.159212
-0.159864
-0.160173
-0.160279
-0.160105
-0.159537
-0.158515
-0.157026
-0.155072
-0.152647
-0.149739
-0.146341
-0.142455
-0.138089
-0.133262
-0.128001
-0.12234
-0.116325
-0.110007
-0.103448
-0.0967147
-0.0898792
-0.0830158
-0.0761999
-0.0695036
-0.062995
-0.0567338
-0.0507728
-0.0451519
-0.0399043
-0.0350475
-0.0305955
-0.0265441
-0.0228931
-0.019619
-0.0167146
-0.0141397
-0.0118898
-0.009909
-0.00820602
-0.00670532
-0.00543717
-0.00430022
-0.00335454
-0.0024695
-0.00173893
-0.00100076
-0.000374797
-0.152073
-0.154625
-0.156124
-0.156879
-0.157274
-0.157446
-0.157337
-0.156849
-0.155925
-0.154546
-0.152712
-0.150416
-0.14765
-0.144407
-0.140687
-0.136499
-0.13186
-0.126794
-0.121333
-0.115521
-0.109406
-0.103044
-0.096501
-0.0898436
-0.0831431
-0.0764718
-0.0698992
-0.063492
-0.0573091
-0.0514034
-0.045816
-0.0405819
-0.0357208
-0.0312496
-0.0271671
-0.0234756
-0.0201548
-0.0171997
-0.0145728
-0.0122706
-0.0102398
-0.00848854
-0.00694427
-0.00563427
-0.00446155
-0.0034802
-0.00256642
-0.00180418
-0.00104195
-0.000385203
-0.149278
-0.151688
-0.153208
-0.154056
-0.154538
-0.154774
-0.154727
-0.154315
-0.153482
-0.152207
-0.150485
-0.148312
-0.145679
-0.142582
-0.139019
-0.134997
-0.130533
-0.12565
-0.120377
-0.114755
-0.108829
-0.102653
-0.0962879
-0.089798
-0.0832511
-0.0767165
-0.0702615
-0.0639511
-0.0578436
-0.0519919
-0.046438
-0.0412184
-0.0363551
-0.0318673
-0.0277567
-0.024028
-0.0206641
-0.0176615
-0.0149858
-0.0126342
-0.0105562
-0.00875897
-0.00717328
-0.00582326
-0.00461642
-0.00360083
-0.00265954
-0.00186685
-0.00108146
-0.000395271
-0.1467
-0.148968
-0.150498
-0.151429
-0.151993
-0.152293
-0.152305
-0.151961
-0.151211
-0.150032
-0.148415
-0.146356
-0.143848
-0.140885
-0.137466
-0.133599
-0.129297
-0.124582
-0.119483
-0.114035
-0.108284
-0.10228
-0.0960797
-0.089745
-0.0833407
-0.0769334
-0.0705884
-0.0643691
-0.058333
-0.052533
-0.0470119
-0.0418074
-0.0369437
-0.0324418
-0.0283062
-0.024544
-0.0211406
-0.0180944
-0.0153735
-0.012976
-0.0108539
-0.00901375
-0.00738927
-0.00600161
-0.00476272
-0.0037148
-0.00274759
-0.00192608
-0.00111876
-0.000404848
-0.144368
-0.146497
-0.148026
-0.149029
-0.149672
-0.150034
-0.1501
-0.149817
-0.149142
-0.14805
-0.146529
-0.144574
-0.142179
-0.139338
-0.136051
-0.132323
-0.128168
-0.123605
-0.118662
-0.113374
-0.107781
-0.101932
-0.0958813
-0.0896877
-0.0834132
-0.0771223
-0.070878
-0.0647426
-0.0587727
-0.0530211
-0.0475312
-0.0423419
-0.037479
-0.0329656
-0.0288083
-0.0250163
-0.0215775
-0.0184918
-0.01573
-0.0132906
-0.0111284
-0.00924885
-0.0075888
-0.00616644