/*--------------------------------*- C++ -*----------------------------------*\
  =========                 |
  \\      /  F ield         | OpenFOAM: The Open Source CFD Toolbox
   \\    /   O peration     | Website:  https://openfoam.org
    \\  /    A nd           | Version:  7
     \\/     M anipulation  |
\*---------------------------------------------------------------------------*/
FoamFile
{
    version     2.0;
    format      ascii;
    class       surfaceScalarField;
    location    "15";
    object      phi;
}
// * * * * * * * * * * * * * * * * * * * * * * * * * * * * * * * * * * * * * //

dimensions      [0 3 -1 0 0 0 0];

internalField   nonuniform List<scalar> 
11919
(
-0.00083432
0.000143414
-4.68179e-10
-0.000988498
0.000154178
-6.35947e-10
-0.00115441
0.000165911
-8.2679e-10
-0.00133289
0.000178484
-1.03524e-09
-0.00152451
0.00019162
-1.25154e-09
-0.00172935
0.000204842
-1.46113e-09
-0.00194687
0.00021752
-1.6442e-09
-0.00217537
0.000228502
-1.77622e-09
-0.0024116
0.000236234
-1.826e-09
-0.00265313
0.000241531
-1.75961e-09
-0.00288826
0.00023513
-1.54885e-09
-0.00312593
0.000237677
-1.18501e-09
0.000207992
-6.20382e-10
-0.00333392
-0.0008047
0.000278544
-0.000948081
0.000297559
-0.00110006
0.000317888
-0.00126074
0.00033917
-0.00142987
0.000360742
-0.00160656
0.000381537
-0.00178929
0.000400248
-0.00197543
0.000414644
-0.00215983
0.000420637
-0.00234156
0.000423262
-0.00250062
0.000394187
-0.00265655
0.000393606
0.00030829
-0.00275685
-0.000746902
0.000397609
-0.000869451
0.000420109
-0.000994704
0.00044314
-0.00112147
0.000465935
-0.00124801
0.000487283
-0.00137183
0.000505361
-0.00148968
0.000518089
-0.00159774
0.000522712
-0.00168687
0.000509761
-0.00176092
0.000497317
-0.00178479
0.000418051
-0.00179376
0.000402583
0.000227724
-0.0017132
-0.000663535
0.000493726
-0.000756567
0.000513141
-0.000844289
0.000530861
-0.000923885
0.000545532
-0.000991838
0.000555235
-0.00104374
0.000557262
-0.00107418
0.000548534
-0.00107883
0.000527353
-0.0010428
0.000473738
-0.00097621
0.000430725
-0.000833246
0.000275087
-0.000646956
0.000216293
-5.50167e-05
-0.000364215
-0.000557973
-0.000614423
0.000569591
-0.000656135
0.000572573
-0.000678594
0.000567992
-0.000676467
0.000553108
-0.000643538
0.000524333
-0.000572054
0.00047705
-0.000457047
0.000412346
-0.000283565
0.000300256
-4.61418e-05
0.000193302
0.000263257
-3.43118e-05
0.000662273
-0.000182724
-0.000563117
0.00117037
-0.000448132
0.000583916
-0.000437437
0.000561878
-0.000395587
0.000526141
-0.000315553
0.000473074
-0.000189513
0.000398293
-1.0063e-05
0.000297599
0.000237104
0.00016518
0.000555971
-1.86117e-05
0.000955983
-0.00020671
0.00146317
-0.000541495
0.00205327
-0.000772829
-0.00130996
0.00280012
-0.000261965
0.00055163
-0.000193764
0.000493677
-8.19771e-05
0.000414354
8.19441e-05
0.000309153
0.000307725
0.000172512
0.000604082
1.24267e-06
0.000984342
-0.000215081
0.0014544
-0.000488671
0.00202695
-0.000779262
0.00272148
-0.00123602
0.00350573
-0.00155708
-0.00227828
0.00447405
-5.84794e-05
0.000468535
7.21936e-05
0.000363004
0.000259675
0.000226873
0.000513954
5.48741e-05
0.00084667
-0.000160204
0.00126505
-0.00041714
0.00178853
-0.000738553
0.00241179
-0.00111193
0.00316019
-0.00152766
0.00403309
-0.00210893
0.00500395
-0.00252794
-0.00342459
0.00615026
0.000162166
0.000329785
0.000361428
0.000163742
0.000632085
-4.37837e-05
0.000985396
-0.000298437
0.0014344
-0.000609212
0.00198459
-0.000967321
0.00265659
-0.00141055
0.00343701
-0.00189235
0.00435363
-0.00244428
0.00537821
-0.00313351
0.00651113
-0.00366087
-0.00466939
0.00775594
0.00040259
0.000128953
0.000678709
-0.000112377
0.0010425
-0.00040757
0.00150592
-0.000761866
0.00208087
-0.00118416
0.00277184
-0.00165829
0.00358964
-0.00222836
0.00451889
-0.0028216
0.0055751
-0.00350049
0.00669916
-0.00425757
0.00793105
-0.00489276
-0.00590481
0.00916647
0.000668055
0.00103161
-0.000475933
0.00150006
-0.000876016
0.00208426
-0.00134607
0.00279029
-0.00189019
0.00362007
-0.00248806
0.0045651
-0.00317339
0.00560884
-0.00386534
0.00674423
-0.00463588
0.00789396
-0.0054073
0.00911969
-0.00611849
-0.00702514
0.01024
0.00142816
-0.000938502
0.00201111
-0.00145896
0.00272019
-0.00205515
0.00355058
-0.00272058
0.00449567
-0.00343316
0.00552592
-0.00420365
0.0066209
-0.00496031
0.00774906
-0.00576405
0.00884206
-0.00650029
0.00994921
-0.00722564
-0.00796853
0.0108926
0.00187287
-0.00150934
0.00257288
-0.00215897
0.00339684
-0.00287911
0.0043253
-0.00364903
0.00533745
-0.00444531
0.00638849
-0.00525469
0.00745458
-0.0060264
0.00849042
-0.00679989
0.00945796
-0.00746784
0.0103819
-0.00814955
-0.00873172
0.0111451
0.00236183
-0.00219024
0.00316765
-0.00296479
0.00407717
-0.00378864
0.00505582
-0.00462768
0.0060696
-0.00545909
0.00706955
-0.00625465
0.00803524
-0.00699209
0.00892554
-0.00769019
0.00973747
-0.00827977
0.0104818
-0.00889383
-0.00936712
0.0111172
0.00287833
0.00376085
-0.00384731
0.00470835
-0.00473614
0.00567643
-0.00559575
0.00662656
-0.00640922
0.0075193
-0.00714739
0.00834628
-0.00781906
0.00908301
-0.00842693
0.00975583
-0.00895259
0.0103669
-0.0095049
-0.00991754
0.0109173
0.00430645
-0.00476166
0.00523576
-0.00566545
0.0061365
-0.00649649
0.00697769
-0.00725041
0.00773956
-0.00790926
0.00842864
-0.00850814
0.00903873
-0.00903702
0.00961157
-0.00952543
0.0101376
-0.0100309
-0.0104247
0.0106447
0.00475932
0.00562088
-0.00652701
0.00641769
-0.0072933
0.00713487
-0.0079676
0.00777376
-0.00854815
0.0083507
-0.00908507
0.00887208
-0.00955839
0.00938032
-0.0100337
0.00985283
-0.0105034
-0.0109054
0.0103336
0.0058527
-0.00729039
0.00653514
-0.00797575
0.00713872
-0.00857118
0.00767929
-0.00908871
0.00817506
-0.00958085
0.00863861
-0.0100219
0.00910279
-0.0104979
0.00953878
-0.0109394
-0.0113734
0.0100068
0.00594597
0.00652382
-0.0085536
0.00703621
-0.00908357
0.00750475
-0.00955725
0.00794426
-0.0100204
0.00836956
-0.0104472
0.00879871
-0.010927
0.00920827
-0.011349
-0.0118347
0.00966954
0.00642163
-0.00904586
0.00686583
-0.00952776
0.00728285
-0.00997427
0.00768302
-0.0104205
0.00808105
-0.0108453
0.00847847
-0.0113244
0.00886185
-0.0117324
-0.0122968
0.00932402
0.00625741
0.0066518
-0.00992216
0.00703125
-0.0103537
0.00740254
-0.0107918
0.00777811
-0.0112208
0.00815117
-0.0116975
0.00852977
-0.012111
-0.0126652
0.00889814
0.00641457
-0.0102794
0.00676497
-0.0107041
0.00711299
-0.0111398
0.0074669
-0.0115747
0.00781774
-0.0120483
0.00818617
-0.0124794
-0.0130249
0.00854584
0.00616168
0.00648807
-0.0110305
0.00681528
-0.011467
0.00714824
-0.0119077
0.00748321
-0.0123833
0.00782733
-0.0128235
-0.0133673
0.00816972
0.00620356
0.00651085
-0.0117743
0.0068248
-0.0122216
0.00713939
-0.0126979
0.00746619
-0.0131503
-0.0136977
0.0077966
0.00620102
0.00649482
-0.0125154
0.00679138
-0.0129945
0.00709958
-0.0134585
-0.0140048
0.00740672
0.00616007
0.00643696
-0.0132714
0.00672442
-0.013746
-0.0142936
0.00701324
0.00607711
0.00634423
-0.0140131
-0.0145603
0.0066109
0.00595728
0.00620255
0.00595728
0.0140131
0.0145603
0.00620255
0.00607711
0.0132714
0.00634423
0.013746
0.0142936
0.0066109
0.00616007
0.0125154
0.00643696
0.0129945
0.00672442
0.0134585
0.0140048
0.00701324
0.00620102
0.0117743
0.00649482
0.0122216
0.00679138
0.0126979
0.00709958
0.0131503
0.0136977
0.00740672
0.00620356
0.0110305
0.00651085
0.011467
0.00682479
0.0119077
0.00713939
0.0123833
0.00746619
0.0128235
0.0133673
0.0077966
0.00616168
0.0102794
0.00648807
0.0107041
0.00681528
0.0111398
0.00714824
0.0115747
0.00748321
0.0120483
0.00782733
0.0124794
0.0130249
0.00816972
0.00641457
0.00992216
0.00676497
0.0103537
0.00711299
0.0107918
0.0074669
0.0112208
0.00781774
0.0116975
0.00818617
0.012111
0.0126652
0.00854584
0.00625741
0.00904586
0.0066518
0.00952776
0.00703125
0.00997427
0.00740254
0.0104205
0.00777811
0.0108453
0.00815117
0.0113244
0.00852977
0.0117324
0.0122968
0.00889814
0.00642163
0.0085536
0.00686583
0.00908357
0.00728285
0.00955725
0.00768302
0.0100204
0.00808105
0.0104472
0.00847847
0.010927
0.00886185
0.011349
0.0118347
0.00932401
0.00594597
0.00729039
0.00652382
0.00797575
0.00703621
0.00857118
0.00750475
0.00908871
0.00794426
0.00958085
0.00836956
0.0100219
0.00879871
0.0104979
0.00920827
0.0109394
0.0113734
0.00966954
0.0058527
0.00652701
0.00653514
0.0072933
0.00713872
0.0079676
0.00767929
0.00854815
0.00817506
0.00908507
0.00863861
0.00955839
0.00910279
0.0100337
0.00953878
0.0105034
0.0109054
0.0100068
0.00475932
0.00476167
0.00562088
0.00566546
0.00641769
0.0064965
0.00713487
0.00725041
0.00777376
0.00790926
0.0083507
0.00850814
0.00887208
0.00903702
0.00938032
0.00952543
0.00985282
0.0100309
0.0104247
0.0103336
0.00430645
0.00384731
0.00523576
0.00473614
0.0061365
0.00559576
0.00697769
0.00640922
0.00773956
0.00714739
0.00842864
0.00781906
0.00903872
0.00842693
0.00961157
0.00895259
0.0101376
0.0095049
0.00991754
0.0106447
0.00287833
0.00219024
0.00376085
0.00296479
0.00470835
0.00378864
0.00567643
0.00462768
0.00662656
0.00545909
0.0075193
0.00625465
0.00834628
0.00699209
0.00908301
0.00769019
0.00975583
0.00827977
0.0103669
0.00889383
0.00936712
0.0109173
0.00236183
0.00150934
0.00316765
0.00215897
0.00407717
0.00287912
0.00505582
0.00364903
0.00606959
0.00444531
0.00706955
0.00525469
0.00803524
0.0060264
0.00892554
0.00679989
0.00973747
0.00746783
0.0104818
0.00814955
0.00873172
0.0111172
0.00187287
0.000938503
0.00257288
0.00145897
0.00339684
0.00205515
0.0043253
0.00272058
0.00533745
0.00343316
0.00638849
0.00420365
0.00745458
0.00496031
0.00849041
0.00576405
0.00945796
0.00650029
0.0103819
0.00722564
0.00796853
0.0111451
0.00142816
0.000475934
0.00201111
0.000876017
0.00272019
0.00134607
0.00355058
0.00189019
0.00449567
0.00248806
0.00552592
0.0031734
0.0066209
0.00386534
0.00774906
0.00463588
0.00884205
0.0054073
0.00994921
0.00611849
0.00702514
0.0108926
0.000668055
-0.000128953
0.00103161
0.000112378
0.00150006
0.000407571
0.00208426
0.000761867
0.00279029
0.00118416
0.00362007
0.00165829
0.0045651
0.00222836
0.00560884
0.0028216
0.00674423
0.00350049
0.00789396
0.00425757
0.00911969
0.00489276
0.00590481
0.01024
0.000402589
-0.000329784
0.000678709
-0.000163741
0.00104249
4.3785e-05
0.00150592
0.000298438
0.00208087
0.000609214
0.00277184
0.000967323
0.00358964
0.00141056
0.00451889
0.00189235
0.0055751
0.00244428
0.00669916
0.00313351
0.00793105
0.00366086
0.00466939
0.00916647
0.000162166
-0.000468535
0.000361428
-0.000363003
0.000632084
-0.000226872
0.000985395
-5.48725e-05
0.0014344
0.000160206
0.00198458
0.000417142
0.00265659
0.000738555
0.003437
0.00111194
0.00435362
0.00152766
0.00537821
0.00210893
0.00651113
0.00252794
0.00342459
0.00775594
-5.84797e-05
-0.000551629
7.21932e-05
-0.000493676
0.000259674
-0.000414353
0.000513953
-0.000309152
0.000846669
-0.00017251
0.00126505
-1.24051e-06
0.00178852
0.000215083
0.00241179
0.000488673
0.00316018
0.000779264
0.00403309
0.00123602
0.00500395
0.00155708
0.00227828
0.00615026
-0.000261965
-0.000583915
-0.000193765
-0.000561877
-8.19777e-05
-0.00052614
8.19434e-05
-0.000473073
0.000307724
-0.000398291
0.000604081
-0.000297597
0.000984341
-0.000165177
0.0014544
1.86141e-05
0.00202695
0.000206712
0.00272148
0.000541497
0.00350573
0.00077283
0.00130996
0.00447405
-0.000448132
-0.00056959
-0.000437438
-0.000572572
-0.000395587
-0.00056799
-0.000315554
-0.000553106
-0.000189514
-0.00052433
-1.00641e-05
-0.000477047
0.000237102
-0.000412344
0.00055597
-0.000300253
0.000955981
-0.0001933
0.00146316
3.43135e-05
0.00205327
0.000182724
0.000563117
0.00280011
-0.000557974
-0.000493725
-0.000614423
-0.00051314
-0.000656135
-0.00053086
-0.000678595
-0.00054553
-0.000676468
-0.000555233
-0.000643539
-0.00055726
-0.000572055
-0.000548531
-0.000457048
-0.000527351
-0.000283566
-0.000473735
-4.61438e-05
-0.000430723
0.000263255
-0.000275085
0.000662271
-0.000216292
5.50168e-05
0.00117037
-0.000663535
-0.000397608
-0.000756567
-0.000420108
-0.000844289
-0.000443138
-0.000923886
-0.000465933
-0.000991838
-0.000487281
-0.00104374
-0.000505358
-0.00107418
-0.000518086
-0.00107883
-0.000522709
-0.0010428
-0.000509758
-0.000976212
-0.000497314
-0.000833248
-0.000418049
-0.000646959
-0.000402581
-0.000227723
-0.000364218
-0.000746902
-0.000278544
-0.000869452
-0.000297558
-0.000994704
-0.000317886
-0.00112147
-0.000339168
-0.00124801
-0.000360739
-0.00137183
-0.000381534
-0.00148968
-0.000400244
-0.00159774
-0.000414641
-0.00168687
-0.000420634
-0.00176092
-0.000423259
-0.00178479
-0.000394184
-0.00179377
-0.000393604
-0.000308289
-0.0017132
-0.0008047
-0.000143413
-0.000948081
-0.000154177
-0.00110006
-0.000165909
-0.00126074
-0.000178482
-0.00142987
-0.000191618
-0.00160656
-0.000204839
-0.00178929
-0.000217517
-0.00197543
-0.000228498
-0.00215983
-0.00023623
-0.00234157
-0.000241527
-0.00250062
-0.000235127
-0.00265655
-0.000237674
-0.00020799
-0.00275685
-0.00083432
-0.000988498
-0.00115441
-0.00133289
-0.00152451
-0.00172935
-0.00194687
-0.00217537
-0.0024116
-0.00265313
-0.00288826
-0.00312593
-0.00333393
-0.00336466
3.07328e-05
-3.6287e-11
-0.00337975
1.5095e-05
2.52962e-10
-0.00337932
-4.28494e-07
5.59991e-10
-0.00336151
-1.78205e-05
9.30395e-10
-0.00332314
-3.83646e-05
1.32579e-09
-0.00326139
-6.17509e-05
1.72957e-09
-0.00317341
-8.79813e-05
2.12511e-09
-0.00305664
-0.00011678
2.50285e-09
-0.00290855
-0.000148086
2.83654e-09
-0.00272701
-0.000181545
3.10497e-09
-0.00251032
-0.000216696
3.28473e-09
-0.00225741
-0.000252909
3.3543e-09
-0.00196809
-0.00028933
3.2958e-09
-0.00164278
-0.000325307
3.09434e-09
-0.00128358
-0.000359203
2.74897e-09
-0.000893107
-0.000390478
2.26559e-09
-0.000474936
-0.000418172
1.65841e-09
-3.35239e-05
-0.000441413
9.70046e-10
0.000424521
-0.000458045
1.96862e-10
0.000894679
-0.000470157
-5.57614e-10
0.00137071
-0.00047603
-1.28471e-09
0.00184651
-0.000475799
-1.93604e-09
0.00231636
-0.00046985
-2.47039e-09
0.0027751
-0.00045873
-2.85792e-09
0.00321828
-0.000443177
-3.08101e-09
0.00364231
-0.000424036
-3.13469e-09
0.00404454
-0.000402227
-3.02625e-09
0.00442318
-0.000378636
-2.77347e-09
0.00477731
-0.000354125
-2.40184e-09
0.00510657
-0.00032926
-1.94276e-09
0.00541124
-0.000304669
-1.43122e-09
0.00569191
-0.000280669
-9.01682e-10
0.00594969
-0.000257774
-3.86426e-10
0.0061856
-0.000235907
8.4762e-11
0.0064013
-0.000215702
4.89484e-10
0.00659775
-0.000196459
8.10486e-10
0.00677722
-0.000179468
1.03819e-09
0.00694
-0.000162776
1.16911e-09
0.00708928
-0.000149287
1.20769e-09
0.00722365
-0.000134367
1.16393e-09
0.0073481
-0.000124456
1.05172e-09
0.00745835
-0.000110245
8.92417e-10
0.00756239
-0.00010404
6.99547e-10
0.00765255
-9.01631e-05
5.05458e-10
0.00774008
-8.75288e-05
3.09002e-10
0.0078158
-7.57177e-05
1.56163e-10
0.00789096
-7.5169e-05
1.10628e-11
0.00795782
-6.68511e-05
-6.42758e-11
0.00802361
-6.57939e-05
-1.43455e-10
-6.03129e-05
-1.60167e-10
-0.00277369
4.75704e-05
-0.00277734
1.87505e-05
-0.0027663
-1.14752e-05
-0.00273816
-4.59523e-05
-0.00269046
-8.60721e-05
-0.00262058
-0.000131631
-0.00252571
-0.000182845
-0.0024037
-0.000238789
-0.00225214
-0.00029965
-0.00206902
-0.000364659
-0.00185284
-0.000432884
-0.00160264
-0.000503106
-0.0013182
-0.000573772
-0.00100035
-0.000643155
-0.000650747
-0.000708806
-0.000272355
-0.000768869
0.000130585
-0.000821112
0.000553274
-0.000864102
0.000992057
-0.000896828
0.00144065
-0.000918748
0.00189336
-0.000928746
0.00234448
-0.000926918
0.00278858
-0.000913948
0.00322082
-0.000890964
0.0036371
-0.000859465
0.00403422
-0.000821148
0.00440981
-0.000777816
0.00476236
-0.00073119
0.00509119
-0.000682952
0.00539615
-0.000634226
0.00567765
-0.000586169
0.00593637
-0.00053939
0.00617347
-0.000494869
0.00638999
-0.000452429
0.00658759
-0.0004133
0.00676722
-0.000376086
0.00693106
-0.000343313
0.00707942
-0.00031114
0.00721538
-0.000285241
0.00733755
-0.000256539
0.00745067
-0.000237579
0.00755066
-0.000210233
0.00764504
-0.000198416
0.00772661
-0.00017174
0.00780589
-0.000166807
0.00787442
-0.000144245
0.00794259
-0.000143339
0.00800346
-0.000127719
0.00806344
-0.000125775
-0.000115747
-0.00170396
3.8337e-05
-0.00168673
1.51553e-06
-0.00165748
-4.07275e-05
-0.00161259
-9.08388e-05
-0.00155011
-0.000148557
-0.00146777
-0.000213963
-0.00136294
-0.000287684
-0.00123384
-0.000367887
-0.00107833
-0.000455156
-0.000894669
-0.000548321
-0.000681553
-0.000646
-0.000438292
-0.000746367
-0.000164646
-0.000847417
0.000137172
-0.000944973
0.000465312
-0.00103695
0.000818136
-0.00112169
0.00119221
-0.00119519
0.00158338
-0.00125527
0.00198669
-0.00130014
0.00239662
-0.00132867
0.00280792
-0.00134004
0.00321542
-0.00133442
0.00361432
-0.00131285
0.00400039
-0.00127703
0.00437013
-0.00122921
0.00472086
-0.00117188
0.00505072
-0.00110767
0.00535859
-0.00103906
0.00564411
-0.000968473
0.00590748
-0.000897595
0.00614929
-0.000827979
0.00637036
-0.000760461
0.00657192
-0.000696426
0.00675505
-0.000635556
0.00692137
-0.000579621
0.00707183
-0.000526543
0.0072085
-0.000479986
0.00733171
-0.00043435
0.0074443
-0.000397833
0.00754504
-0.000357278
0.00763816
-0.0003307
0.00771999
-0.000292061
0.00779716
-0.000275588
0.00786339
-0.000237971
0.00792783
-0.000231247
0.00798337
-0.000199788
0.00803884
-0.000198801
0.00808879
-0.000177673
0.00813814
-0.000175121
-0.000162215
-0.000320913
-4.96525e-06
-0.000280034
-3.9364e-05
-0.000228854
-9.19071e-05
-0.000164809
-0.000154884
-8.63508e-05
-0.000227015
8.84118e-06
-0.000309155
0.000121177
-0.00040002
0.000254147
-0.000500858
0.000409177
-0.000610186
0.000587732
-0.000726876
0.000790835
-0.000849104
0.00101891
-0.000974441
0.00127173
-0.00110024
0.00154867
-0.00122191
0.00184824
-0.00133652
0.00216735
-0.0014408
0.00250286
-0.00153071
0.00285087
-0.00160328
0.00320695
-0.00165622
0.00356634
-0.00168806
0.0039244
-0.0016981
0.00427666
-0.00168669
0.00461906
-0.00165525
0.0049481
-0.00160607
0.00526095
-0.00154207
0.00555555
-0.00146647
0.00583052
-0.00138265
0.00608518
-0.00129372
0.00631942
-0.00120272
0.00653369
-0.00111186
0.00672878
-0.00102308
0.00690559
-0.00093727
0.00706537
-0.000856201
0.00720918
-0.00077937
0.00733859
-0.000709027
0.00745449
-0.000642449
0.00755883
-0.000584324
0.00765197
-0.000527485
0.00773647
-0.000482339
0.00781133
-0.000432132
0.00788014
-0.00039951
0.00793978
-0.000351709
0.00799575
-0.000331558
0.00804296
-0.00028518
0.00808881
-0.000277092
0.00812797
-0.000238946
0.00816724
-0.000238076
0.00820318
-0.000213617
0.00823881
-0.000210746
-0.000197025
0.00122485
-5.9444e-05
0.00128707
-0.00010158
0.00135624
-0.000161078
0.00143443
-0.000233074
0.00152347
-0.000316054
0.00162504
-0.000410722
0.00174145
-0.000516433
0.00187382
-0.000633233
0.00202353
-0.000759895
0.00219171
-0.000895051
0.00237914
-0.00103654
0.00258608
-0.00118138
0.00281211
-0.00132627
0.00305677
-0.00146658
0.00331843
-0.00159817
0.0035945
-0.00171687
0.00388207
-0.00181828
0.00417772
-0.00189893
0.00447773
-0.00195623
0.00477821
-0.00198854
0.00507534
-0.00199523
0.00536554
-0.00197689
0.0056456
-0.00193531
0.00591282
-0.00187328
0.00616508
-0.00179433
0.00640088
-0.00170227
0.0066193
-0.00160107
0.00681993
-0.00149435
0.00700284
-0.00138563
0.00716849
-0.00127751
0.00731777
-0.00117235
0.0074515
-0.001071
0.00757083
-0.000975529
0.00767671
-0.000885255
0.00777054
-0.000802851
0.00785311
-0.00072502
0.00792615
-0.000657363
0.00799005
-0.000591393
0.0080471
-0.000539388
0.00809655
-0.000481577
0.00814131
-0.00044427
0.00817891
-0.000389311
0.00821354
-0.00036619
0.00824147
-0.000313106
0.00826817
-0.000303789
0.00829029
-0.000261066
0.00831249
-0.000260285
0.00833349
-0.000234615
0.00835438
-0.000231635
-0.000219164
0.00285433
-0.000113653
0.00292327
-0.000170524
0.00300042
-0.000238232
0.00308435
-0.000317005
0.00317635
-0.000408048
0.0032778
-0.000512172
0.00339015
-0.000628785
0.00351413
-0.000757217
0.00365071
-0.000896467
0.00380067
-0.00104501
0.00396451
-0.00120038
0.00414234
-0.00135921
0.00433375
-0.00151768
0.00453808
-0.0016709
0.00475383
-0.00181393
0.00497889
-0.00194192
0.00521078
-0.00205016
0.00544674
-0.0021349
0.00568393
-0.00219341
0.00591946
-0.00222407
0.00615059
-0.00222636
0.00637477
-0.00220106
0.00658976
-0.0021503
0.00679372
-0.00207725
0.00698525
-0.00198586
0.00716335
-0.00188037
0.00732745
-0.00176516
0.00747729
-0.00164419
0.00761297
-0.00152131
0.0077348
-0.00139934
0.00784349
-0.00128104
0.00793971
-0.00116722
0.00802432
-0.00106014
0.00809803
-0.000958968
0.00816193
-0.000866756
0.00821663
-0.000779717
0.00826354
-0.000704272
0.00830305
-0.0006309
0.00833709
-0.00057343
0.00836522
-0.000509705
0.00838966
-0.00046871
0.00840859
-0.000408245
0.00842488
-0.000382482
0.00843611
-0.000324337
0.00844587
-0.000313548
0.00845273
-0.000267926
0.00845936
-0.000266912
0.00846649
-0.000241744
0.00847358
-0.000238726
-0.000229233
0.00452134
-0.000160946
0.00458157
-0.000230749
0.00465093
-0.000307592
0.00472704
-0.000393118
0.00481006
-0.000491066
0.00490064
-0.000602751
0.00499912
-0.000727271
0.00510555
-0.000863643
0.00522009
-0.00101101
0.00534294
-0.00116786
0.00547422
-0.00133166
0.00561409
-0.00149907
0.00576226
-0.00166586
0.00591811
-0.00182675
0.00608045
-0.00197627
0.00624757
-0.00210905
0.00641754
-0.00222013
0.00658837
-0.00230572
0.0067582
-0.00236324
0.00692532
-0.00239119
0.00708813
-0.00238918
0.0072452
-0.00235813
0.00739529
-0.00230038
0.00753738
-0.00221934
0.0076707
-0.00211918
0.00779467
-0.00200434
0.00790893
-0.00187942
0.00801327
-0.00174853
0.00810763
-0.00161568
0.0081921
-0.00148381
0.008267
-0.00135594
0.00833276
-0.00123298
0.00838983
-0.00111721
0.00843859
-0.00100772
0.00847973
-0.000907897
0.00851357
-0.000813554
0.00854113
-0.000731834
0.00856272
-0.000652493
0.00857991
-0.000590614
0.00859251
-0.00052231
0.00860211
-0.000478304
0.00860747
-0.000413614
0.00861021
-0.000385222
0.00860906
-0.000323187
0.00860589
-0.00031037
0.00860091
-0.000262953
0.00859513
-0.00026113
0.00859096
-0.000237574
0.00858669
-0.000234453
-0.000229114
0.00617938
-0.000190067
0.00621927
-0.000270635
0.00626739
-0.000355711
0.00632163
-0.000447364
0.0063819
-0.000551335
0.0064483
-0.000669152
0.0065204
-0.00079937
0.00659763
-0.000940864
0.00667959
-0.00109297
0.00676594
-0.00125422
0.00685623
-0.00142196
0.00694993
-0.00159277
0.00704656
-0.00176248
0.00714609
-0.00192628
0.00724826
-0.00207844
0.007352
-0.00221279
0.00745601
-0.00232414
0.00755909
-0.0024088
0.00766035
-0.00246451
0.00775921
-0.00249005
0.0078552
-0.00248517
0.00794789
-0.00245082
0.00803689
-0.00238939
0.00812187
-0.00230431
0.00820249
-0.0021998
0.00827843
-0.00208028
0.00834937
-0.00195036
0.00841498
-0.00181414
0.00847501
-0.00167571
0.00852919
-0.00153799
0.00857744
-0.00140419
0.00861977
-0.00127531
0.00865633
-0.00115378
0.00868706
-0.00103846
0.00871227
-0.000933105
0.00873195
-0.000833233
0.00874671
-0.000746593
0.00875672
-0.000662506
0.00876316
-0.00059705
0.00876608
-0.000525232
0.00876647
-0.000478693
0.00876364
-0.00041078
0.00875804
-0.000379628
0.00874934
-0.00031448
0.0087379
-0.000298938
0.00872524
-0.000250294
0.00871107
-0.000246952
0.00869899
-0.000225494
0.00868665
-0.000222112
-0.000221492
0.00775689
-0.000191022
0.00776717
-0.000280916
0.00778374
-0.000372277
0.00780509
-0.000468718
0.00783148
-0.00057772
0.00786258
-0.000700257
0.00789738
-0.000834164
0.0079349
-0.000978385
0.00797444
-0.00113251
0.00801532
-0.00129509
0.00805681
-0.00146345
0.00809823
-0.00163418
0.00813898
-0.00180324
0.00817868
-0.00196599
0.00821748
-0.00211723
0.00825608
-0.00225139
0.00829422
-0.00236229
0.00833144
-0.00244602
0.00836767
-0.00250073
0.00840321
-0.00252559
0.0084385
-0.00252046
0.00847389
-0.00248621
0.00850959
-0.00242509
0.00854565
-0.00234037
0.00858196
-0.00223612
0.00861824
-0.00211656
0.00865405
-0.00198617
0.00868888
-0.00184896
0.00872215
-0.00170898
0.00875326
-0.0015691
0.00878174
-0.00143267
0.00880718
-0.00130074
0.00882942
-0.00117602
0.00884809
-0.00105713
0.0088631
-0.000948113
0.00887418
-0.00084431
0.00888154
-0.000753958
0.00888523
-0.000666189
0.00888602
-0.000597842
0.00888417
-0.000523387
0.00888019
-0.000474706
0.0088738
-0.000404394
0.00886454
-0.000370366
0.00885269
-0.000302635
0.00883747
-0.000283716
0.0088212
-0.000234018
0.0088027
-0.00022846
0.00878629
-0.000209075
0.00876942
-0.000205248
-0.000209367
0.00913664
-0.000161191
0.00911449
-0.000258762
0.00909608
-0.00035387
0.00908065
-0.000453291
0.00906887
-0.000565936
0.00906007
-0.000691459
0.0090529
-0.000826994
0.00904632
-0.000971805
0.00903955
-0.00112574
0.0090318
-0.00128734
0.00902228
-0.00145394
0.00901042
-0.00162232
0.00899587
-0.00178868
0.0089785
-0.00194863
0.00895853
-0.00209726
0.00893691
-0.00222977
0.00891532
-0.00234071
0.00889436
-0.00242505
0.00887452
-0.00248089
0.00885668
-0.00250776
0.00884185
-0.00250563
0.00883082
-0.00247518
0.0088241
-0.00241837
0.0088219
-0.00233817
0.00882411
-0.00223832
0.00883033
-0.00212278
0.00883995
-0.0019958
0.00885218
-0.00186119
0.00886617
-0.00172297
0.00888102
-0.00158395
0.00889594
-0.00144759
0.00891017
-0.00131498
0.00892325
-0.0011891
0.00893464
-0.00106852
0.00894393
-0.000957407
0.00895065
-0.000851025
0.00895469
-0.000758003
0.00895598
-0.000667473
0.00895495
-0.000596816
0.00895202
-0.000520458
0.00894731
-0.000469992
0.00894091
-0.000397994
0.00893163
-0.000361086
0.00892017
-0.00029118
0.00890488
-0.000268419
0.00888847
-0.000217615
0.0088693
-0.000209286
0.00885183
-0.000191607
0.00883377
-0.000187186
-0.00019567
0.0101879
-0.000109076
0.0101398
-0.000210637
0.0100924
-0.000306461
0.0100458
-0.000406743
0.010001
-0.000521066
0.00995687
-0.000647366
0.00991221
-0.000782334
0.00986613
-0.00092573
0.009818
-0.00107761
0.0097671
-0.00123644
0.00971285
-0.00139969
0.00965493
-0.00156441
0.00959336
-0.00172711
0.0095284
-0.00188367
0.00946082
-0.00202968
0.00939148
-0.00216042
0.00932269
-0.00227192
0.00925644
-0.0023588
0.00919388
-0.00241833
0.00913615
-0.00245003
0.00908449
-0.00245397
0.00903988
-0.00243057
0.00900291
-0.0023814
0.00897376
-0.00230902
0.00895224
-0.0022168
0.00893779
-0.00210834
0.00892963
-0.00198763
0.00892673
-0.0018583
0.00892805
-0.00172428
0.00893246
-0.00158837
0.00893895
-0.00145408
0.00894656
-0.00132259
0.00895457
-0.0011971
0.00896228
-0.00107623
0.00896917
-0.000964302
0.0089746
-0.000856448
0.00897821
-0.000761622
0.00897985
-0.00066911
0.00897968
-0.000596647
0.00897822
-0.000518995
0.00897532
-0.000467089
0.00897134
-0.000394023
0.00896463
-0.000354372
0.0089561
-0.000282651
0.00894352
-0.000255835
0.00892969
-0.000203793
0.00891275
-0.000192347
0.00889699
-0.000175846
0.00888057
-0.00017076
-0.000183004
0.0108328
-4.92386e-05
0.0107718
-0.000149679
0.0107084
-0.000243078
0.0106436
-0.000341907
0.0105781
-0.000455547
0.0105109
-0.000580152
0.0104409
-0.000712342
0.0103676
-0.000852448
0.0102906
-0.00100061
0.0102094
-0.00115523
0.0101237
-0.00131401
0.0100336
-0.00147427
0.00993935
-0.0016329
0.00984173
-0.00178605
0.00974183
-0.00192977
0.00964105
-0.00205965
0.00954116
-0.00217203
0.00944509
-0.00226272
0.0093547
-0.00232794
0.00927134
-0.00236668
0.00919627
-0.0023789
0.00913048
-0.00236478
0.00907456
-0.00232547
0.00902863
-0.0022631
0.00899242
-0.00218059
0.00896526
-0.00208118
0.00894626
-0.00196863
0.00893429
-0.00184633
0.00892817
-0.00171816
0.00892668
-0.00158687
0.00892868
-0.00145608
0.0089331
-0.00132701
0.00893907
-0.00120307
0.00894577
-0.00108293
0.0089526
-0.000971128
0.00895886
-0.00086271
0.00896404
-0.000766798
0.00896789
-0.000672957
0.00897036
-0.000599123
0.00897205
-0.000520679
0.00897262
-0.000467659
0.00897265
-0.000394055
0.0089702
-0.000351919
0.00896627
-0.000278728
0.00895833
-0.00024789
0.00894903
-0.000194492
0.00893649
-0.000179814
0.00892459
-0.000163943
0.00891204
-0.000158212
-0.00017353
0.0110919
3.92387e-06
0.011032
-8.97767e-05
0.0109663
-0.000177379
0.0108968
-0.000272451
0.0108244
-0.000383096
0.0107479
-0.000503708
0.0106668
-0.000631207
0.0105808
-0.000766459
0.0104898
-0.000909537
0.0103933
-0.00105882
0.0102916
-0.00121227
0.0101849
-0.00136754
0.0100738
-0.0015218
0.0099593
-0.00167159
0.00984274
-0.00181321
0.00972589
-0.0019428
0.00961036
-0.00205649
0.00949896
-0.00215132
0.0093941
-0.00222308
0.00929741
-0.00226999
0.00921016
-0.00229165
0.0091333
-0.00228792
0.00906741
-0.00225958
0.00901261
-0.00220829
0.00896859
-0.00213657
0.00893471
-0.0020473
0.00891003
-0.00194395
0.00889343
-0.00182973
0.0088837
-0.00170844
0.0088796
-0.00158277
0.00887995
-0.00145643
0.00888364
-0.0013307
0.00888973
-0.00120916
0.00889734
-0.00109055
0.00890577
-0.000979553
0.00891432
-0.00087126
0.00892239
-0.000774874
0.00892969
-0.000680253
0.00893599
-0.000605428
0.00894191
-0.000526599
0.00894702
-0.00047277
0.00895204
-0.000399066
0.0089549
-0.000354782
0.00895663
-0.000280458
0.00895457
-0.000245832
0.0089511
-0.000191024
0.0089445
-0.000173206
0.00893804
-0.000157491
0.00893106
-0.000151225
-0.000168954
0.0110654
5.56566e-05
0.0110143
-3.86529e-05
0.0109545
-0.000117546
0.0108899
-0.000207836
0.0108206
-0.000313803
0.0107454
-0.000428592
0.0106643
-0.000550019
0.0105771
-0.000679322
0.0104839
-0.000816337
0.0103846
-0.000959485
0.0102793
-0.00110702
0.0101687
-0.00125691
0.0100534
-0.00140654
0.00993472
-0.00155286
0.00981388
-0.00169237
0.00969278
-0.0018217
0.00957319
-0.0019369
0.00945737
-0.00203551
0.00934796
-0.00211367
0.00924687
-0.0021689
0.00915544
-0.00220022
0.00907462
-0.0022071
0.00900501
-0.00218997
0.00894678
-0.00215006
0.00889971
-0.0020895
0.0088632
-0.00201079
0.00883641
-0.00191716
0.00881827
-0.00181159
0.00880763
-0.00169779
0.00880325
-0.0015784
0.00880399
-0.00145717
0.00880872
-0.00133543
0.00881647
-0.00121691
0.00882634
-0.00110041
0.00883757
-0.000990784
0.00884945
-0.000883144
0.00886134
-0.000786758
0.00887291
-0.000691828
0.00888384
-0.000616351
0.0088947
-0.000537466
0.00890504
-0.000483105
0.00891563
-0.000409658
0.00892445
-0.000363604
0.00893247
-0.000288473
0.00893707
-0.000250435
0.00894029
-0.000194242
0.00894062
-0.000173536
0.00894075
-0.000157625
0.00894053
-0.000151008
-0.000170573
0.0108763
9.66912e-05
0.0108334
4.22503e-06
0.0107818
-6.5952e-05
0.0107251
-0.000151097
0.0106625
-0.000251268
0.0105934
-0.000359406
0.0105176
-0.000474285
0.0104355
-0.000597215
0.0103469
-0.000727752
0.0102519
-0.000864459
0.0101507
-0.00100587
0.010044