/*--------------------------------*- C++ -*----------------------------------*\
  =========                 |
  \\      /  F ield         | OpenFOAM: The Open Source CFD Toolbox
   \\    /   O peration     | Website:  https://openfoam.org
    \\  /    A nd           | Version:  7
     \\/     M anipulation  |
\*---------------------------------------------------------------------------*/
FoamFile
{
    version     2.0;
    format      ascii;
    class       volVectorField;
    location    "15";
    object      U;
}
// * * * * * * * * * * * * * * * * * * * * * * * * * * * * * * * * * * * * * //

dimensions      [0 1 -1 0 0 0 0];

internalField   nonuniform List<vector> 
6050
(
(-0.179135 0.00460005 1.83458e-20)
(-0.197452 0.00455542 -2.50828e-20)
(-0.21484 0.00455231 1.46328e-20)
(-0.231517 0.00457685 7.63901e-21)
(-0.247609 0.0046105 2.77531e-21)
(-0.263156 0.00462924 -9.03969e-21)
(-0.278112 0.00460634 -5.17073e-21)
(-0.2923 0.00449962 -3.4122e-21)
(-0.305418 0.00426102 1.42392e-20)
(-0.317232 0.00393437 -1.68405e-20)
(-0.326835 0.00323628 -3.61892e-21)
(-0.334699 0.00288069 4.19978e-21)
(-0.338265 0.00160874 -1.1846e-20)
(-0.174219 0.013646 -7.99774e-20)
(-0.190961 0.0134834 4.87513e-20)
(-0.206467 0.0134393 -3.80426e-20)
(-0.220906 0.0134723 4.54047e-21)
(-0.234355 0.0135276 -2.21142e-20)
(-0.246802 0.0135342 8.05288e-21)
(-0.25816 0.0134153 1.6222e-20)
(-0.268221 0.0130517 2.71905e-20)
(-0.276582 0.0122703 1.64425e-20)
(-0.283261 0.0113184 4.60246e-20)
(-0.286584 0.0090182 4.39879e-21)
(-0.288587 0.00814002 -3.80218e-20)
(-0.283357 0.00385209 2.83961e-20)
(-0.164558 0.0222399 6.76163e-21)
(-0.17824 0.0218774 -1.88273e-20)
(-0.190113 0.0216936 3.74693e-20)
(-0.200262 0.02162 -1.16533e-20)
(-0.208685 0.0215683 1.33403e-20)
(-0.215282 0.0214242 -1.35005e-20)
(-0.219909 0.0210687 -2.5881e-20)
(-0.222352 0.0203411 -3.00237e-20)
(-0.221895 0.0188252 -3.68139e-20)
(-0.219511 0.0173884 -7.48991e-20)
(-0.211152 0.0129174 2.8083e-20)
(-0.203635 0.0120318 2.37588e-20)
(-0.18233 0.0039238 7.43737e-20)
(-0.150462 0.0301082 -5.80508e-21)
(-0.159758 0.0294223 -1.79811e-21)
(-0.166472 0.0289513 -1.08294e-19)
(-0.170598 0.0286014 -5.13495e-20)
(-0.172046 0.028254 2.40101e-20)
(-0.170631 0.0277576 2.97795e-21)
(-0.166132 0.0269599 2.36932e-20)
(-0.158507 0.0257464 -7.14428e-20)
(-0.146152 0.0232246 2.79798e-20)
(-0.132676 0.0214886 4.11134e-20)
(-0.108399 0.0143847 4.80895e-20)
(-0.0904136 0.01344 -2.56825e-20)
(-0.0477575 0.00213644 -6.01332e-20)
(-0.132323 0.0370147 -4.45908e-21)
(-0.13609 0.0358576 -1.65447e-21)
(-0.136381 0.0349261 2.21109e-20)
(-0.133106 0.0341035 3.24244e-20)
(-0.12611 0.0332454 -8.76279e-20)
(-0.115144 0.0321731 1.06387e-19)
(-0.0998661 0.0307081 5.44725e-20)
(-0.0807999 0.0288419 8.47632e-20)
(-0.0543995 0.0252075 -2.17795e-21)
(-0.0293871 0.0226077 -2.03646e-20)
(0.013545 0.0143303 1.93514e-21)
(0.0411905 0.0111322 -3.1312e-20)
(0.108327 -0.000747355 -5.60232e-20)
(-0.107792 0.0409894 8.22948e-21)
(-0.100616 0.0394248 2.27468e-20)
(-0.0888534 0.0379413 1.80475e-19)
(-0.0723103 0.036373 -1.06073e-21)
(-0.0507278 0.0345298 6.36925e-20)
(-0.0235501 0.0322746 -1.55964e-19)
(0.0077004 0.0293229 2.01602e-20)
(0.0493903 0.0249768 -3.21652e-20)
(0.0857912 0.0205621 -2.58643e-20)
(0.150111 0.0125602 2.43959e-20)
(0.183342 0.00572424 -5.43445e-20)
(0.280146 -0.00526569 5.5253e-20)
(-0.0752567 0.0446965 -1.1906e-19)
(-0.0596826 0.0423564 1.39828e-20)
(-0.0384708 0.0400682 -3.70626e-20)
(-0.0114117 0.0376515 5.81833e-20)
(0.0217311 0.0349004 -1.80517e-21)
(0.0616871 0.031845 -5.41316e-20)
(0.105701 0.0274293 1.41935e-19)
(0.164145 0.02303 -5.50948e-20)
(0.210366 0.0160597 -4.70077e-20)
(0.299524 0.00905608 7.31942e-20)
(0.334354 -0.00104067 2.76783e-20)
(0.463162 -0.0113299 1.20279e-19)
(-0.038571 0.0469347 3.61824e-19)
(-0.0136087 0.0437375 4.67609e-21)
(0.0181102 0.0405845 -2.3141e-19)
(0.0567989 0.0372928 -2.41304e-20)
(0.102636 0.0335934 -2.25301e-19)
(0.15654 0.0299233 1.06805e-19)
(0.214173 0.0239035 -7.93981e-20)
(0.290282 0.0202329 8.3068e-20)
(0.346741 0.0101523 1.16712e-19)
(0.459713 0.00531149 4.57675e-20)
(0.49649 -0.00753012 -1.28436e-19)
(0.652662 -0.0169787 -1.12104e-19)
(0.00261635 0.0477438 -2.96789e-19)
(0.0382077 0.043703 -8.4976e-20)
(0.081818 0.0397503 5.33219e-20)
(0.133634 0.0357221 9.80386e-20)
(0.193721 0.031218 -2.96444e-20)
(0.262842 0.0273608 1.14949e-19)
(0.335895 0.0199501 6.65525e-21)
(0.42826 0.0174876 -1.2497e-19)
(0.498455 0.00521344 9.09002e-21)
(0.627021 0.00244282 -1.77576e-19)
(0.670352 -0.0118618 3.3056e-20)
(0.839915 -0.0195682 -7.03782e-20)
(0.0491973 0.0472634 1.37738e-19)
(0.0970804 0.0425288 -1.13282e-19)
(0.154425 0.038011 1.76233e-19)
(0.221281 0.0335922 1.72965e-19)
(0.297445 0.0287189 2.23049e-19)
(0.382659 0.0250892 -2.13161e-19)
(0.472829 0.0173972 1.94665e-20)
(0.577396 0.0156894 1.8419e-19)
(0.664283 0.00352672 -6.52254e-20)
(0.794725 0.0019903 1.02948e-21)
(0.848984 -0.0124997 -7.15617e-21)
(1.01019 -0.0176465 8.93331e-20)
(0.102647 0.0457635 -1.50935e-19)
(0.164968 0.0406688 -2.40452e-20)
(0.238254 0.0360368 -7.65179e-20)
(0.32213 0.0317912 -5.08677e-20)
(0.415662 0.0273167 -1.2021e-19)
(0.516772 0.0242518 -6.00422e-20)
(0.622892 0.0177907 2.274e-20)
(0.734244 0.0162784 -1.18269e-19)
(0.834263 0.00607448 1.29235e-20)
(0.952995 0.00498062 7.4124e-21)
(1.01589 -0.00883259 -8.87355e-20)
(1.14709 -0.01188 5.96634e-20)
(0.244173 0.0387955 -7.87251e-20)
(0.335503 0.0347403 2.45983e-19)
(0.437594 0.0314159 -2.77404e-19)
(0.547903 0.0282424 -2.49811e-19)
(0.662544 0.0261861 3.46975e-19)
(0.778606 0.0218036 -7.55609e-20)
(0.890353 0.0204644 3.70161e-20)
(0.992004 0.0124845 5.28279e-20)
(1.08996 0.0111583 -4.77547e-20)
(1.15114 -0.00186016 1.30119e-19)
(1.2404 -0.00429123 1.6246e-19)
(0.336713 0.0378107 1.24564e-19)
(0.447169 0.0352122 -1.40344e-19)
(0.566585 0.0336128 -5.96944e-20)
(0.690008 0.0324291 1.95027e-19)
(0.812274 0.031744 -2.54149e-19)
(0.92846 0.0293035 -1.41095e-20)
(1.03236 0.0280438 1.0463e-19)
(1.12181 0.0213268 -4.19739e-20)
(1.19477 0.0190871 -5.46531e-20)
(1.24262 0.00625761 6.87832e-21)
(1.29181 0.00304806 -7.32861e-20)
(0.443365 0.0387729 -2.60363e-19)
(0.571775 0.038516 1.53509e-19)
(0.70431 0.0392143 8.80131e-20)
(0.833707 0.0401919 -1.14109e-19)
(0.954181 0.0406473 1.79831e-19)
(1.05978 0.0393247 1.39309e-19)
(1.14704 0.0373967 -3.58318e-20)
(1.21501 0.0307274 1.43715e-21)
(1.26287 0.0269332 -5.28028e-21)
(1.29243 0.0135513 -1.77281e-19)
(1.31308 0.00948118 -2.46505e-19)
(0.562563 0.0426879 1.05584e-19)
(0.704422 0.0453304 -8.81965e-20)
(0.842298 0.0483266 6.24367e-20)
(0.967948 0.0509032 5.34957e-20)
(1.07621 0.0515667 -4.10366e-20)
(1.16271 0.0501799 9.69556e-20)
(1.22776 0.0465348 -1.07819e-19)
(1.27226 0.0392063 1.28598e-19)
(1.29898 0.0333799 2.52392e-19)
(1.31314 0.0195196 1.25773e-19)
(1.31734 0.0147417 1.98427e-19)
(0.836987 0.0555791 1.17531e-20)
(0.970179 0.0601285 3.45711e-20)
(1.08222 0.0630689 -5.89265e-20)
(1.17041 0.06274 -1.49359e-19)
(1.23392 0.0601687 -3.15937e-21)
(1.2767 0.0542001 1.8131e-19)
(1.30146 0.0461599 -1.52716e-19)
(1.31364 0.0382118 -3.49189e-19)
(1.31792 0.0245522 -2.601e-19)
(1.31441 0.0193235 9.75072e-20)
(0.959918 0.0683124 -2.55594e-19)
(1.07878 0.0730912 1.93929e-19)
(1.17022 0.0749634 2.54271e-20)
(1.23531 0.0727394 6.63359e-20)
(1.27708 0.0683549 -1.45868e-19)
(1.30175 0.0601957 -4.20867e-20)
(1.31283 0.0517707 -3.93399e-20)
(1.3166 0.0418781 4.2374e-20)
(1.31534 0.0292565 1.52379e-19)
(1.30863 0.0233266 -3.22558e-19)
(1.16304 0.0855982 -9.11808e-20)
(1.23148 0.0853626 2.51319e-20)
(1.27515 0.0809473 -1.42657e-19)
(1.29963 0.0747046 -1.19735e-20)
(1.31167 0.0649848 2.91633e-20)
(1.31446 0.0564631 -2.11257e-20)
(1.31383 0.0448847 2.92384e-19)
(1.30944 0.0340471 5.35193e-21)
(1.30211 0.0267451 3.02708e-19)
(1.2229 0.0965646 -3.44433e-20)
(1.27009 0.0938525 -1.21238e-19)
(1.29664 0.087464 -2.18707e-19)
(1.30898 0.0796745 -6.1291e-21)
(1.31306 0.0691249 -1.00066e-19)
(1.31124 0.0604975 8.64642e-20)
(1.30836 0.0477123 -4.40918e-20)
(1.30209 0.0392049 -3.36964e-19)
(1.29555 0.0292319 -1.31443e-19)
(1.29189 0.100628 1.81083e-19)
(1.30612 0.0927036 2.7601e-19)
(1.3106 0.0837936 -4.6443e-20)
(1.31001 0.072953 6.70301e-20)
(1.30579 0.0640173 -2.46008e-20)
(1.30171 0.050899 1.51786e-19)
(1.29419 0.0444975 7.49895e-20)
(1.2892 0.0303965 8.6003e-20)
(1.30232 0.106118 1.78631e-20)
(1.30829 0.0970983 7.6143e-20)
(1.308 0.0874645 -1.42994e-20)
(1.30477 0.0765862 1.3511e-19)
(1.29941 0.0672605 1.4601e-20)
(1.29463 0.0547578 -3.52029e-19)
(1.28658 0.0489096 1.57378e-19)
(1.28256 0.0295497 -1.44841e-19)
(1.30626 0.100997 -2.95385e-20)
(1.30321 0.090928 -3.18127e-20)
(1.29854 0.0800777 -2.32507e-20)
(1.29269 0.0705451 1.36529e-19)
(1.28742 0.058877 1.03691e-19)
(1.27958 0.0511885 3.25441e-20)
(1.27562 0.0383566 9.05631e-20)
(1.30193 0.104625 -3.10905e-20)
(1.29733 0.0942888 -1.21603e-20)
(1.29191 0.0835109 1.11124e-19)
(1.28586 0.0739606 -5.84929e-20)
(1.28031 0.0623064 -6.79765e-20)
(1.27276 0.0558527 -1.5551e-19)
(1.26865 0.0416139 -1.03771e-19)
(1.29094 0.0976163 6.27531e-21)
(1.28514 0.0869563 -1.43524e-19)
(1.27902 0.0771895 3.52728e-20)
(1.27333 0.0663149 -6.93934e-20)
(1.26605 0.0588416 -2.63031e-19)
(1.26217 0.0462075 1.37242e-19)
(1.27832 0.0903273 7.75107e-20)
(1.27221 0.0805747 -1.87587e-20)
(1.26644 0.0697548 2.3125e-19)
(1.25955 0.0625017 2.21884e-19)
(1.25554 0.0501309 9.1573e-20)
(1.26542 0.0837867 -4.48477e-21)
(1.25964 0.0733741 -1.5773e-19)
(1.25307 0.0656438 -6.03997e-20)
(1.24908 0.0537408 -8.75733e-20)
(1.2529 0.0767129 -1.09902e-20)
(1.24666 0.068787 1.44691e-19)
(1.24254 0.0572748 1.56987e-19)
(1.24023 0.0717562 -8.54294e-20)
(1.23603 0.0604995 -3.25062e-20)
(1.24023 -0.0717562 -3.02393e-20)
(1.23603 -0.0604995 -2.1979e-19)
(1.2529 -0.0767129 7.13935e-20)
(1.24666 -0.068787 1.56966e-19)
(1.24254 -0.0572748 8.4151e-20)
(1.26542 -0.0837867 9.17904e-20)
(1.25964 -0.073374 -7.64772e-20)
(1.25307 -0.0656438 -1.27084e-19)
(1.24908 -0.0537408 2.06806e-20)
(1.27832 -0.0903273 -1.9863e-19)
(1.27221 -0.0805747 -2.93081e-21)
(1.26644 -0.0697548 2.59815e-19)
(1.25955 -0.0625017 1.06278e-19)
(1.25554 -0.0501309 8.99301e-20)
(1.29094 -0.0976163 -4.91459e-20)
(1.28514 -0.0869563 3.04023e-20)
(1.27902 -0.0771895 -2.80987e-20)
(1.27333 -0.0663148 2.92331e-20)
(1.26605 -0.0588416 -1.62983e-19)
(1.26217 -0.0462075 9.21226e-20)
(1.30193 -0.104625 3.91705e-21)
(1.29733 -0.0942887 9.06015e-20)
(1.29191 -0.0835109 4.27437e-20)
(1.28586 -0.0739606 -1.06056e-19)
(1.28031 -0.0623064 -2.1045e-20)
(1.27276 -0.0558527 -1.06427e-20)
(1.26865 -0.0416139 -1.63047e-19)
(1.30626 -0.100997 -1.17357e-20)
(1.30321 -0.090928 6.16247e-21)
(1.29854 -0.0800777 -5.84724e-20)
(1.29269 -0.070545 5.39488e-20)
(1.28742 -0.058877 4.12223e-20)
(1.27958 -0.0511885 -3.67103e-21)
(1.27562 -0.0383566 1.27554e-19)
(1.30232 -0.106118 -1.07895e-19)
(1.30829 -0.0970983 -1.68899e-19)
(1.308 -0.0874645 1.35097e-19)
(1.30477 -0.0765861 8.84653e-20)
(1.29941 -0.0672604 -3.96491e-20)
(1.29463 -0.0547578 -3.27875e-19)
(1.28658 -0.0489096 3.26129e-20)
(1.28256 -0.0295497 1.88364e-20)
(1.29189 -0.100628 2.11935e-19)
(1.30612 -0.0927036 2.24148e-19)
(1.3106 -0.0837936 -7.37349e-20)
(1.31001 -0.072953 1.89096e-20)
(1.30579 -0.0640173 5.63718e-20)
(1.30171 -0.0508989 5.21138e-20)
(1.29419 -0.0444975 1.58882e-19)
(1.2892 -0.0303966 6.06933e-20)
(1.2229 -0.0965646 -5.91861e-20)
(1.27009 -0.0938524 -9.71342e-20)
(1.29664 -0.087464 -1.50688e-19)
(1.30898 -0.0796744 3.57225e-20)
(1.31306 -0.0691249 -1.3856e-19)
(1.31124 -0.0604975 -4.71245e-21)
(1.30836 -0.0477123 -1.13692e-19)
(1.30209 -0.0392049 -1.56439e-19)
(1.29555 -0.029232 -9.72596e-20)
(1.16304 -0.0855981 4.06633e-20)
(1.23148 -0.0853625 -5.59389e-20)
(1.27515 -0.0809472 -1.23556e-19)
(1.29963 -0.0747045 -7.95109e-20)
(1.31167 -0.0649847 1.19017e-19)
(1.31446 -0.0564631 -7.73423e-20)
(1.31383 -0.0448847 3.47865e-19)
(1.30944 -0.0340471 1.78097e-19)
(1.30211 -0.0267451 3.06298e-20)
(0.959918 -0.0683123 3.72346e-20)
(1.07878 -0.0730912 -1.50153e-20)
(1.17022 -0.0749634 -5.66146e-20)
(1.23531 -0.0727393 2.82363e-19)
(1.27708 -0.0683548 -1.83123e-19)
(1.30175 -0.0601957 -1.70742e-19)
(1.31282 -0.0517707 3.60302e-20)
(1.3166 -0.0418781 3.39663e-20)
(1.31534 -0.0292565 4.02099e-19)
(1.30863 -0.0233266 -3.81683e-19)
(0.836988 -0.055579 1.32508e-19)
(0.97018 -0.0601285 1.26378e-20)
(1.08222 -0.0630689 -3.46682e-20)
(1.17041 -0.0627399 -1.08384e-19)
(1.23392 -0.0601687 4.36507e-20)
(1.2767 -0.0542 8.5779e-20)
(1.30146 -0.0461599 -1.31546e-19)
(1.31364 -0.0382118 -3.10291e-19)
(1.31792 -0.0245522 -1.73776e-19)
(1.31441 -0.0193235 8.74059e-20)
(0.562563 -0.0426878 4.84738e-19)
(0.704422 -0.0453303 -2.12005e-19)
(0.842298 -0.0483265 1.06418e-20)
(0.967948 -0.0509031 1.54067e-19)
(1.07621 -0.0515667 1.23949e-19)
(1.16271 -0.0501798 -7.65317e-20)
(1.22776 -0.0465347 3.76526e-20)
(1.27226 -0.0392063 1.11917e-19)
(1.29898 -0.0333799 8.19123e-20)
(1.31314 -0.0195196 1.58227e-19)
(1.31734 -0.0147417 3.55181e-19)
(0.443365 -0.0387728 -2.99054e-19)
(0.571775 -0.0385159 1.8699e-19)
(0.70431 -0.0392142 1.24987e-19)
(0.833707 -0.0401918 -2.51611e-19)
(0.954181 -0.0406472 3.52997e-19)
(1.05978 -0.0393247 -2.37168e-20)
(1.14704 -0.0373966 -6.66964e-20)
(1.21501 -0.0307274 -4.4972e-20)
(1.26287 -0.0269332 -1.73547e-20)
(1.29243 -0.0135513 -2.41878e-20)
(1.31308 -0.00948122 -1.31147e-19)
(0.336713 -0.0378106 1.0964e-19)
(0.447169 -0.0352121 -1.33822e-19)
(0.566585 -0.0336127 -6.73786e-20)
(0.690009 -0.032429 2.04236e-19)
(0.812274 -0.0317439 -3.34328e-19)
(0.92846 -0.0293034 -1.88811e-21)
(1.03236 -0.0280437 1.44974e-19)
(1.12181 -0.0213267 -9.17876e-20)
(1.19477 -0.0190871 7.69042e-20)
(1.24262 -0.00625763 -1.57773e-19)
(1.29181 -0.00304811 -1.31372e-19)
(0.244173 -0.0387954 5.32703e-20)
(0.335503 -0.0347402 1.45544e-19)
(0.437594 -0.0314158 -2.24464e-19)
(0.547903 -0.0282423 -2.36486e-19)
(0.662544 -0.026186 3.1261e-19)
(0.778606 -0.0218035 -7.15054e-20)
(0.890353 -0.0204643 1.15526e-19)
(0.992003 -0.0124844 9.83998e-20)
(1.08996 -0.0111583 -1.46361e-19)
(1.15114 0.00186015 1.51927e-19)
(1.2404 0.00429119 1.2084e-19)
(0.102647 -0.0457634 2.14396e-19)
(0.164968 -0.0406687 6.41824e-20)
(0.238254 -0.0360367 -2.89241e-19)
(0.32213 -0.0317911 5.53678e-20)
(0.415662 -0.0273166 -1.71028e-19)
(0.516772 -0.0242516 -1.43347e-20)
(0.622892 -0.0177905 7.46917e-20)
(0.734244 -0.0162783 -1.38612e-19)
(0.834263 -0.00607438 -3.67454e-20)
(0.952995 -0.00498056 -3.69241e-20)
(1.01589 0.0088326 2.05408e-20)
(1.14709 0.01188 -2.61728e-20)
(0.0491973 -0.0472633 1.32672e-19)
(0.0970804 -0.0425287 -7.00673e-20)
(0.154425 -0.0380109 2.56579e-19)
(0.221281 -0.0335921 -3.04908e-20)
(0.297445 -0.0287187 2.33965e-19)
(0.382659 -0.025089 -5.82893e-20)
(0.472829 -0.017397 4.38942e-20)
(0.577396 -0.0156892 -5.81555e-20)
(0.664283 -0.00352659 6.68629e-20)
(0.794725 -0.00199021 4.37395e-20)
(0.848984 0.0124998 3.14889e-20)
(1.01019 0.0176465 -4.44427e-20)
(0.00261634 -0.0477437 -3.68199e-19)
(0.0382077 -0.0437029 -4.40078e-20)
(0.0818179 -0.0397502 6.221e-20)
(0.133634 -0.0357219 9.40674e-20)
(0.19372 -0.0312179 1.03421e-19)
(0.262842 -0.0273606 1.65381e-20)
(0.335894 -0.0199499 -1.23817e-20)
(0.42826 -0.0174874 -1.94518e-19)
(0.498455 -0.0052133 -3.08266e-20)
(0.62702 -0.00244271 4.33187e-20)
(0.670352 0.0118618 -8.60998e-20)
(0.839915 0.0195682 -1.53826e-19)
(-0.038571 -0.0469346 2.51745e-19)
(-0.0136088 -0.0437373 -3.44993e-20)
(0.0181102 -0.0405843 -1.78966e-19)
(0.0567989 -0.0372927 -1.3821e-19)
(0.102636 -0.0335932 -4.67185e-20)
(0.15654 -0.0299231 -5.25562e-20)
(0.214173 -0.0239032 4.28873e-20)
(0.290282 -0.0202327 6.10012e-20)
(0.346741 -0.0101521 8.52307e-20)
(0.459713 -0.00531136 -4.00572e-21)
(0.49649 0.00753019 1.71621e-20)
(0.652662 0.0169787 -1.19446e-19)
(-0.0752567 -0.0446964 -1.51425e-19)
(-0.0596826 -0.0423563 9.81805e-20)
(-0.0384709 -0.040068 -3.58406e-20)
(-0.0114117 -0.0376513 7.1153e-20)
(0.021731 -0.0349002 -1.48398e-20)
(0.061687 -0.0318447 -1.92031e-20)
(0.105701 -0.0274291 6.29435e-20)
(0.164144 -0.0230298 -5.79948e-20)
(0.210366 -0.0160595 5.68707e-20)
(0.299523 -0.00905592 6.316e-21)
(0.334354 0.00104077 4.74057e-20)
(0.463161 0.01133 2.33939e-19)
(-0.107792 -0.0409892 3.10383e-20)
(-0.100617 -0.0394247 5.95475e-20)
(-0.0888535 -0.0379411 1.39811e-19)
(-0.0723104 -0.0363728 -4.25369e-20)
(-0.0507278 -0.0345295 4.80211e-20)
(-0.0235502 -0.0322744 -6.65315e-20)
(0.00770027 -0.0293227 -6.71883e-20)
(0.0493901 -0.0249766 7.67715e-20)
(0.085791 -0.0205619 -1.43434e-20)
(0.150111 -0.0125601 -9.7148e-20)
(0.183342 -0.00572413 7.00723e-20)
(0.280145 0.00526572 -5.36918e-20)
(-0.132323 -0.0370146 1.05407e-19)
(-0.13609 -0.0358575 -1.60078e-20)
(-0.136381 -0.0349259 5.74254e-21)
(-0.133106 -0.0341033 -1.93588e-20)
(-0.12611 -0.0332452 -2.19289e-21)
(-0.115144 -0.0321729 8.64597e-20)
(-0.0998662 -0.0307079 9.71248e-20)
(-0.0808 -0.0288416 1.61298e-20)
(-0.0543997 -0.0252073 4.47846e-20)
(-0.0293872 -0.0226075 -8.72946e-20)
(0.0135448 -0.0143301 1.16589e-19)
(0.0411902 -0.0111321 -1.23432e-19)
(0.108327 0.000747401 -3.31562e-20)
(-0.150462 -0.0301081 1.50564e-20)
(-0.159758 -0.0294221 -2.89811e-20)
(-0.166472 -0.0289512 -5.05175e-20)
(-0.170598 -0.0286012 -8.0106e-20)
(-0.172046 -0.0282538 4.40938e-20)
(-0.170631 -0.0277574 -1.07074e-20)
(-0.166132 -0.0269597 5.75432e-20)
(-0.158507 -0.0257462 -9.75117e-20)
(-0.146153 -0.0232243 4.52606e-20)
(-0.132676 -0.0214883 5.13054e-20)
(-0.1084 -0.0143845 -5.19551e-20)
(-0.0904139 -0.0134399 4.61738e-20)
(-0.0477578 -0.00213638 -7.60015e-20)
(-0.164558 -0.0222398 -5.89892e-21)
(-0.17824 -0.0218772 -3.40546e-20)
(-0.190113 -0.0216934 1.5282e-20)
(-0.200262 -0.0216198 1.69785e-20)
(-0.208685 -0.0215681 2.73246e-20)
(-0.215283 -0.0214239 -3.55849e-20)
(-0.219909 -0.0210685 -1.75057e-20)
(-0.222352 -0.0203408 2.82545e-21)
(-0.221895 -0.0188249 -8.23641e-20)
(-0.219512 -0.0173882 -4.20935e-20)
(-0.211153 -0.0129172 -2.36824e-20)
(-0.203636 -0.0120317 7.86672e-20)
(-0.18233 -0.00392373 2.69227e-20)
(-0.174219 -0.0136459 -6.89617e-20)
(-0.190961 -0.0134832 4.7701e-20)
(-0.206467 -0.0134391 -3.87943e-20)
(-0.220906 -0.0134721 2.2011e-20)
(-0.234355 -0.0135273 -3.04283e-20)
(-0.246802 -0.013534 -4.83506e-21)
(-0.25816 -0.013415 9.11768e-21)
(-0.268221 -0.0130514 3.39354e-20)
(-0.276582 -0.01227 2.00879e-20)
(-0.283261 -0.0113181 5.59297e-20)
(-0.286584 -0.00901797 -1.76858e-20)
(-0.288587 -0.00813985 -2.44217e-20)
(-0.283357 -0.00385201 -3.68637e-22)
(-0.179135 -0.00459995 1.95258e-20)
(-0.197452 -0.00455528 -2.12959e-20)
(-0.21484 -0.00455214 8.22225e-21)
(-0.231517 -0.00457664 1.69224e-20)
(-0.247609 -0.00461026 -7.80749e-21)
(-0.263156 -0.00462897 1.70483e-21)
(-0.278112 -0.00460604 -1.11806e-20)
(-0.2923 -0.00449931 -2.423e-21)
(-0.305418 -0.00426071 1.16363e-20)
(-0.317232 -0.00393408 -6.80155e-21)
(-0.326835 -0.00323604 -8.93524e-21)
(-0.334699 -0.00288051 -4.17909e-21)
(-0.338265 -0.00160865 -1.48691e-20)
(-0.341602 0.00210374 -1.05498e-20)
(-0.344596 0.00115614 4.85336e-21)
(-0.345539 0.000339587 -3.83212e-21)
(-0.345033 -0.000650464 7.41468e-21)
(-0.342507 -0.00172562 -9.25708e-22)
(-0.337754 -0.00288452 -5.22111e-21)
(-0.330438 -0.00411758 1.56117e-21)
(-0.320285 -0.00540451 3.69255e-22)
(-0.307018 -0.00673411 -1.18911e-21)
(-0.290387 -0.00808475 4.9946e-21)
(-0.270177 -0.00943076 -4.85998e-21)
(-0.246237 -0.0107408 -1.16655e-22)
(-0.218487 -0.0119754 2.48454e-21)
(-0.186905 -0.0131098 -5.19107e-22)
(-0.151627 -0.0140957 -3.02784e-22)
(-0.112893 -0.0149242 7.13461e-22)
(-0.070975 -0.0155797 -1.04332e-21)
(-0.0263328 -0.0160119 6.59772e-22)
(0.0205912 -0.0161541 -3.97292e-22)
(0.0692187 -0.0161372 6.01145e-22)
(0.118857 -0.0159 -3.98564e-22)
(0.168959 -0.0154665 -9.57555e-23)
(0.218913 -0.0148664 4.61645e-23)
(0.26815 -0.014131 9.42496e-23)
(0.316165 -0.0132944 -4.84735e-23)
(0.362535 -0.0123905 2.31795e-23)
(0.406925 -0.011452 5.16693e-23)
(0.449098 -0.0105063 -8.18152e-23)
(0.488898 -0.00958074 3.09346e-23)
(0.526267 -0.00869722 6.34844e-23)
(0.561171 -0.00786631 -2.8179e-23)
(0.593685 -0.00709115 -1.26409e-22)
(0.623834 -0.0063801 2.09621e-23)
(0.651819 -0.00572728 9.33118e-24)
(0.677628 -0.00514287 1.52207e-23)
(0.701635 -0.00460759 -1.36719e-23)
(0.723625 -0.00414507 -4.24445e-23)
(0.744338 -0.00371114 1.22692e-23)
(0.762996 -0.00336106 1.16093e-23)
(0.781203 -0.0030008 -7.09279e-24)
(0.796808 -0.00275095 4.24451e-24)
(0.813393 -0.00243588 -2.84266e-24)
(0.825903 -0.00227641 3.06316e-24)
(0.841912 -0.00199433 1.00376e-23)
(0.851071 -0.00191161 1.98916e-25)
(0.867673 -0.00168638 1.55501e-25)
(0.873481 -0.00164609 -6.2065e-25)
(0.891637 -0.00149285 7.46991e-25)
(0.894351 -0.00144942 -5.63622e-25)
(0.914571 -0.00135109 2.56597e-24)
(-0.282062 0.00532643 -2.72961e-20)
(-0.284158 0.00264667 1.0538e-20)
(-0.283705 0.00017349 -1.90016e-20)
(-0.281888 -0.00269028 8.27959e-21)
(-0.278113 -0.00582824 6.07362e-21)
(-0.2722 -0.00920869 5.88894e-21)
(-0.263842 -0.0128109 -1.41409e-20)
(-0.252788 -0.0165729 9.44162e-21)
(-0.238791 -0.0204645 -9.21386e-21)
(-0.221616 -0.0244159 1.65549e-22)
(-0.201073 -0.028351 5.26031e-21)
(-0.177023 -0.0321815 5.7739e-21)
(-0.149421 -0.0358039 -7.75605e-21)
(-0.118245 -0.0391616 4.96662e-21)
(-0.0836304 -0.0420536 1.84695e-21)
(-0.0458693 -0.0444301 -2.91636e-21)
(-0.00522133 -0.0462156 -1.14464e-21)
(0.0379524 -0.0473721 2.19888e-21)
(0.0830994 -0.0478275 -8.06499e-22)
(0.129651 -0.0477078 -1.28982e-22)
(0.177022 -0.0469542 -5.41291e-22)
(0.224649 -0.0456276 9.53523e-22)
(0.271964 -0.0438118 -4.4919e-22)
(0.318441 -0.0416015 1.13638e-22)
(0.36362 -0.0390996 -6.16743e-23)
(0.407118 -0.0364077 2.24689e-22)
(0.448639 -0.0336219 -4.02593e-22)
(0.48798 -0.0308231 2.14393e-22)
(0.525014 -0.0280861 -6.9303e-23)
(0.559707 -0.0254747 3.76214e-22)
(0.592049 -0.0230256 -3.20656e-23)
(0.622122 -0.020745 3.47617e-23)
(0.649964 -0.018656 -2.21414e-22)
(0.675774 -0.0167405 1.59706e-22)
(0.69955 -0.015028 1.19337e-22)
(0.72165 -0.0134608 -1.9073e-22)
(0.741876 -0.0121086 9.49828e-23)
(0.760933 -0.0108405 -7.39564e-24)
(0.778087 -0.00981967 -7.57664e-23)
(0.794857 -0.00876793 1.71708e-23)
(0.809203 -0.00804072 -1.26925e-24)
(0.824521 -0.00712071 -1.87987e-23)
(0.836008 -0.00665756 1.4205e-23)
(0.850856 -0.00583424 1.37303e-23)
(0.859233 -0.00559534 -1.93031e-23)
(0.874719 -0.00494016 3.53866e-24)
(0.879994 -0.00482517 1.37688e-24)
(0.897028 -0.00438328 -5.29182e-25)
(0.89947 -0.00425795 1.21474e-24)
(0.918525 -0.00397773 1.52912e-24)
(-0.174105 0.00621853 -3.4627e-20)
(-0.174154 0.00219132 2.23749e-20)
(-0.17136 -0.0019552 2.19974e-21)
(-0.167292 -0.00651747 -1.2296e-20)
(-0.161472 -0.0115225 -5.38545e-21)
(-0.153702 -0.0169128 1.62921e-20)
(-0.143704 -0.022713 -2.20643e-20)
(-0.131272 -0.0286929 5.24426e-21)
(-0.116208 -0.0348909 -9.67048e-22)
(-0.0983011 -0.0411816 -2.94415e-21)
(-0.077403 -0.0474397 2.43668e-21)
(-0.0534062 -0.0535215 1.26979e-20)
(-0.0263462 -0.0592734 -1.35205e-20)
(0.00382236 -0.0644653 5.99822e-21)
(0.0370825 -0.0689574 -2.16043e-21)
(0.0730212 -0.072657 2.6976e-21)
(0.111295 -0.0753703 -2.25798e-21)
(0.151582 -0.0770594 2.11437e-21)
(0.193401 -0.0777125 -8.50516e-22)
(0.236226 -0.0773371 1.36071e-21)
(0.279511 -0.0759588 -1.07924e-21)
(0.322733 -0.0736704 -1.38519e-21)
(0.365389 -0.0706049 6.72797e-22)
(0.407025 -0.0669192 -1.36708e-22)
(0.44725 -0.0627825 -1.57917e-22)
(0.485753 -0.0583606 9.17764e-23)
(0.522301 -0.053809 -2.56584e-22)
(0.556747 -0.0492585 2.32575e-22)
(0.589006 -0.0448213 1.85098e-22)
(0.619082 -0.0405893 -3.54632e-22)
(0.646999 -0.0366365 -5.69661e-22)
(0.672859 -0.0329689 6.85752e-22)
(0.696712 -0.029619 -1.38666e-22)
(0.718755 -0.0265543 -2.8896e-22)
(0.738999 -0.0238216 2.7974e-22)
(0.75778 -0.0213251 1.14203e-22)
(0.774925 -0.0191776 -8.05528e-24)
(0.791079 -0.0171655 -7.02826e-23)
(0.805586 -0.0155524 -3.31388e-24)
(0.819819 -0.0138876 -5.55064e-23)
(0.831936 -0.0127428 8.90898e-23)
(0.844997 -0.0112863 -4.82616e-23)
(0.85466 -0.01056 -1.66955e-23)
(0.867416 -0.00925805 -1.70906e-23)
(0.874391 -0.00888715 3.42682e-23)
(0.887838 -0.00785854 -5.18038e-25)
(0.892151 -0.00768427 -9.98724e-24)
(0.907119 -0.00700315 -4.65363e-24)
(0.909067 -0.00680942 -5.74742e-24)
(0.925962 -0.00638857 -1.21264e-24)
(-0.0335181 0.00269325 -1.85685e-20)
(-0.0310551 -0.00131455 -1.61702e-20)
(-0.0254011 -0.00672029 2.9193e-20)
(-0.0186448 -0.0127384 3.45204e-20)
(-0.0105194 -0.0192693 -5.22882e-20)
(-0.00081956 -0.0263303 -9.12573e-21)
(0.010853 -0.0338286 4.40923e-20)
(0.0246901 -0.0416825 -4.17939e-20)
(0.0406817 -0.0498093 1.02334e-20)
(0.0590784 -0.0580576 -1.1207e-21)
(0.0799852 -0.0662543 1.03003e-20)
(0.103473 -0.0741996 1.36965e-20)
(0.129527 -0.0817043 -1.2964e-20)
(0.158054 -0.088386 -1.27587e-20)
(0.189004 -0.094138 2.36282e-20)
(0.222081 -0.0988382 -6.9743e-21)
(0.256943 -0.102255 -8.79969e-21)
(0.293249 -0.104287 1.32027e-20)
(0.330559 -0.104894 -5.70954e-21)
(0.368407 -0.104105 6.67345e-22)
(0.406318 -0.101987 -1.65791e-21)
(0.443843 -0.098671 2.75441e-22)
(0.48056 -0.0943393 -2.86123e-22)
(0.516104 -0.0892067 8.38278e-23)
(0.550168 -0.0835028 1.33979e-22)
(0.582521 -0.0774511 8.99489e-23)
(0.613 -0.0712594 -1.04592e-23)
(0.641517 -0.0651025 -1.82517e-22)
(0.668033 -0.059127 1.19002e-22)
(0.692579 -0.0534347 -5.24732e-22)
(0.715212 -0.0481333 1.04613e-21)
(0.73605 -0.0432374 -3.47654e-22)
(0.755154 -0.038783 4.94188e-23)
(0.772711 -0.0347201 4.40409e-22)
(0.788742 -0.03111 -8.09391e-23)
(0.80355 -0.0278198 8.63128e-23)
(0.816994 -0.0250012 -4.35516e-22)
(0.829645 -0.022365 1.74614e-22)
(0.840941 -0.020264 -2.36953e-22)
(0.852078 -0.0180921 5.61188e-23)
(0.861466 -0.0166095 -8.85652e-25)
(0.871733 -0.01471 1.08858e-22)
(0.879143 -0.0137732 -7.75811e-23)
(0.889262 -0.0120791 4.22206e-23)
(0.894486 -0.0116064 -3.76471e-23)
(0.905312 -0.0102835 -1.68971e-23)
(0.908411 -0.0100692 1.83951e-23)
(0.920674 -0.00921902 -2.86798e-24)
(0.921994 -0.00897552 1.13388e-23)
(0.936033 -0.00847339 -7.02623e-24)
(0.126297 -0.00424674 2.08556e-21)
(0.131992 -0.00826984 -3.76769e-21)
(0.139383 -0.0142159 3.00088e-20)
(0.148415 -0.0211753 1.78615e-20)
(0.158608 -0.0288088 -2.84262e-20)
(0.170052 -0.0371078 -4.73437e-20)
(0.183007 -0.0458768 3.42559e-20)
(0.197669 -0.0551733 -7.62388e-21)
(0.214116 -0.0647786 -2.21226e-20)
(0.232462 -0.0745289 3.23685e-20)
(0.252778 -0.0842103 -1.58381e-20)
(0.275091 -0.0935712 8.83864e-22)
(0.299359 -0.102362 2.83501e-20)
(0.325465 -0.11025 -1.45814e-20)
(0.353319 -0.116987 2.68305e-21)
(0.382659 -0.122358 -1.33257e-20)
(0.41316 -0.126153 1.54329e-20)
(0.444499 -0.128259 -4.31014e-21)
(0.476306 -0.128634 -7.23611e-21)
(0.508197 -0.127311 5.30236e-21)
(0.539795 -0.12439 -3.51515e-21)
(0.570747 -0.120038 3.97166e-21)
(0.600737 -0.114484 -2.36938e-21)
(0.629498 -0.107995 8.8854e-22)
(0.656822 -0.100853 2.09628e-22)
(0.682559 -0.0933296 1.21514e-22)
(0.706613 -0.0856768 1.65629e-22)
(0.728947 -0.0781035 1.42883e-22)
(0.749557 -0.0707874 -6.71417e-22)
(0.768489 -0.0638378 3.18435e-23)
(0.785806 -0.0573714 7.13748e-23)
(0.801634 -0.0514235 3.37544e-23)
(0.816031 -0.0460343 -8.97707e-23)
(0.829162 -0.0411336 -2.48469e-22)
(0.841044 -0.0367945 2.86069e-22)
(0.851942 -0.0328501 9.70221e-23)
(0.861736 -0.0294863 -3.96558e-23)
(0.870915 -0.0263481 -1.11678e-22)
(0.879021 -0.0238642 -1.68878e-22)
(0.887053 -0.0212951 1.6193e-22)
(0.893703 -0.0195542 -1.31406e-22)
(0.901123 -0.0173098 -9.33749e-24)
(0.906249 -0.0162123 -2.12349e-23)
(0.913615 -0.0142175 6.71791e-24)
(0.917042 -0.0136686 -1.6151e-23)
(0.925047 -0.0121363 4.8034e-23)
(0.926886 -0.0118983 9.37922e-24)
(0.936167 -0.0109554 1.29177e-24)
(0.936828 -0.0106815 -1.73454e-23)
(0.947675 -0.0101642 -1.09804e-24)
(0.297486 -0.0115434 -1.62846e-20)
(0.305651 -0.0170561 -7.30054e-20)
(0.314044 -0.0236098 1.01192e-21)
(0.324113 -0.0310787 1.82638e-20)
(0.335394 -0.0393851 -4.31222e-21)
(0.347709 -0.0484907 3.05888e-20)
(0.361206 -0.0582516 3.59719e-20)
(0.376019 -0.0685379 -4.68998e-20)
(0.392183 -0.0791828 2.25549e-20)
(0.409736 -0.0899958 -2.4668e-20)
(0.428702 -0.100727 4.02362e-20)
(0.449062 -0.111075 -1.32697e-20)
(0.470745 -0.120744 -3.53238e-21)
(0.493616 -0.129379 -2.02352e-21)
(0.51753 -0.136689 8.0733e-21)
(0.542256 -0.142413 7.25013e-21)
(0.567511 -0.146329 -9.6933e-21)
(0.59301 -0.148306 -1.95126e-21)
(0.618468 -0.148309 -5.66212e-21)
(0.643606 -0.146388 8.76909e-22)
(0.668169 -0.142668 8.50367e-22)
(0.691927 -0.13735 3.57853e-21)
(0.714685 -0.130702 -1.94966e-21)
(0.736296 -0.123031 -1.13238e-21)
(0.756649 -0.114661 3.14952e-22)
(0.775678 -0.1059 2.02523e-22)
(0.793348 -0.0970307 2.15048e-22)
(0.80966 -0.0882866 -1.0685e-22)
(0.824631 -0.0798676 -4.93867e-22)
(0.838309 -0.0718952 5.87018e-22)
(0.850737 -0.0644797 3.24556e-22)
(0.862027 -0.0576685 -4.75223e-23)
(0.872221 -0.0515186 -1.26299e-22)
(0.881451 -0.0459391 -7.39639e-22)
(0.88971 -0.0410123 1.58533e-22)
(0.897214 -0.0365423 1.91178e-22)
(0.90385 -0.0327453 -3.08409e-22)
(0.910024 -0.0292127 2.89251e-22)
(0.915365 -0.0264359 -1.25361e-22)
(0.920687 -0.0235666 6.89865e-23)
(0.924956 -0.0216339 1.78879e-22)
(0.929851 -0.0191317 -2.09673e-22)
(0.93298 -0.0179101 8.08702e-23)
(0.937828 -0.0156956 2.5996e-23)
(0.939668 -0.0150841 -1.06342e-23)
(0.944995 -0.0134178 -1.93125e-23)
(0.945708 -0.0131639 -4.15798e-23)
(0.952067 -0.0121975 2.53583e-23)
(0.952132 -0.0119092 8.87868e-24)
(0.959796 -0.0114383 -8.00544e-25)
(0.476726 -0.0188776 8.19105e-20)
(0.48535 -0.0258693 1.43071e-20)
(0.494002 -0.0332604 6.09301e-20)
(0.503836 -0.0412088 -6.99837e-20)
(0.514745 -0.0500021 -5.64895e-21)
(0.526603 -0.0596619 4.32069e-20)
(0.539447 -0.0700151 -5.43184e-20)
(0.553283 -0.0808974 -1.10202e-21)
(0.568073 -0.092151 6.27456e-20)
(0.583793 -0.103575 -2.91129e-20)
(0.600414 -0.114901 2.51306e-20)
(0.617864 -0.125818 -4.79971e-20)
(0.636021 -0.135993 2.15277e-21)
(0.654729 -0.145033 -9.17541e-21)
(0.673819 -0.152591 2.71532e-20)
(0.693083 -0.158381 -1.16588e-20)
(0.712281 -0.162182 1.22239e-20)
(0.73119 -0.163869 -7.79763e-21)
(0.749623 -0.163421 -2.4926e-21)
(0.767431 -0.160906 -1.50654e-21)
(0.784495 -0.156471 4.51582e-21)
(0.800723 -0.150341 1.18283e-21)