/*--------------------------------*- C++ -*----------------------------------*\
  =========                 |
  \\      /  F ield         | OpenFOAM: The Open Source CFD Toolbox
   \\    /   O peration     | Website:  https://openfoam.org
    \\  /    A nd           | Version:  7
     \\/     M anipulation  |
\*---------------------------------------------------------------------------*/
FoamFile
{
    version     2.0;
    format      ascii;
    class       volScalarField;
    location    "15";
    object      p;
}
// * * * * * * * * * * * * * * * * * * * * * * * * * * * * * * * * * * * * * //

dimensions      [0 2 -2 0 0 0 0];

internalField   nonuniform List<scalar> 
2625
(
0.0913992
0.0938214
0.0966854
0.0988119
0.0970767
0.101936
0.103763
0.098792
0.102585
0.107149
0.108674
0.10466
0.108065
0.11232
0.113542
0.106446
0.110503
0.113515
0.117446
0.118366
0.112745
0.116317
0.11893
0.122525
0.123143
0.119018
0.1221
0.124309
0.127555
0.127874
0.122217
0.125263
0.127847
0.129648
0.132533
0.132557
0.129012
0.131477
0.133556
0.134946
0.137456
0.137191
0.144957
0.133039
0.135776
0.137654
0.139224
0.1402
0.142323
0.141776
0.149275
0.140466
0.142505
0.143792
0.144848
0.145406
0.147132
0.146311
0.153499
0.147858
0.149195
0.149888
0.150424
0.150564
0.151882
0.150796
0.157626
0.153602
0.15521
0.15584
0.155937
0.155951
0.15567
0.156569
0.155231
0.161657
0.161728
0.162517
0.162438
0.161936
0.161425
0.160722
0.161194
0.159617
0.16559
0.169806
0.169774
0.168985
0.167882
0.166843
0.165718
0.165753
0.163953
0.169425
0.177748
0.177831
0.176975
0.175475
0.173771
0.172202
0.170656
0.170247
0.168241
0.173159
0.186689
0.185796
0.184117
0.181905
0.179599
0.177501
0.175534
0.174672
0.172482
0.176791
0.195564
0.193697
0.191195
0.188271
0.185364
0.182735
0.180349
0.179029
0.176678
0.180318
0.204368
0.201526
0.198202
0.194568
0.191061
0.187903
0.185098
0.183316
0.180833
0.183749
0.215476
0.213094
0.209279
0.205135
0.200793
0.196687
0.193001
0.18978
0.187532
0.184964
0.187106
0.22523
0.221733
0.216949
0.211988
0.206941
0.202239
0.198028
0.194391
0.191678
0.189096
0.190327
0.234887
0.230281
0.224531
0.218758
0.213009
0.207714
0.20298
0.198927
0.195756
0.193199
0.193054
0.244439
0.238728
0.232019
0.225437
0.218992
0.213107
0.207855
0.203387
0.199766
0.197152
0.194942
0.253879
0.24707
0.239407
0.232024
0.224887
0.218416
0.212649
0.207766
0.203701
0.201041
0.197461
0.270982
0.263198
0.255298
0.246689
0.238511
0.230689
0.223637
0.21736
0.212064
0.207561
0.204794
0.200361
0.281482
0.272388
0.263406
0.253861
0.244895
0.236394
0.228767
0.221986
0.216276
0.211346
0.208406
0.203302
0.291833
0.28144
0.271388
0.260915
0.251171
0.241999
0.233803
0.226523
0.220401
0.215057
0.211895
0.20622
0.302025
0.290347
0.279236
0.267848
0.257334
0.2475
0.238741
0.23097
0.224438
0.21869
0.215274
0.209122
0.31205
0.299101
0.286945
0.274652
0.26338
0.252893
0.243579
0.235324
0.228384
0.222244
0.218548
0.212001
0.321897
0.307695
0.294507
0.281324
0.269304
0.258174
0.248314
0.239581
0.232238
0.225718
0.22172
0.214844
0.344775
0.331557
0.316119
0.301916
0.287857
0.275102
0.263339
0.252941
0.243741
0.235997
0.22911
0.224796
0.217644
0.355607
0.34102
0.324367
0.309167
0.294246
0.280769
0.268386
0.25746
0.2478
0.239662
0.232418
0.227779
0.220395
0.366211
0.350279
0.332432
0.316252
0.300486
0.286301
0.27331
0.261865
0.251756
0.243229
0.23564
0.23067
0.22309
0.376576
0.359323
0.340305
0.323165
0.306573
0.291694
0.278107
0.266156
0.255607
0.246698
0.238776
0.233471
0.225724
0.386692
0.368144
0.34798
0.329901
0.3125
0.296944
0.282775
0.270328
0.25935
0.250068
0.241822
0.236185
0.228295
0.396548
0.376733
0.355449
0.336453
0.318263
0.302046
0.28731
0.274379
0.262983
0.253335
0.244778
0.23881
0.230798
0.406134
0.385082
0.362706
0.342816
0.323857
0.306996
0.291708
0.278306
0.266504
0.2565
0.247642
0.241349
0.23323
0.415439
0.393182
0.369743
0.348985
0.329278
0.311792
0.295966
0.282107
0.269911
0.25956
0.250412
0.243801
0.235589
0.424454
0.401026
0.376555
0.354953
0.334521
0.316427
0.300082
0.28578
0.273201
0.262513
0.253087
0.246166
0.237873
0.462611
0.43317
0.408606
0.383134
0.360715
0.339581
0.3209
0.304051
0.28932
0.276372
0.265359
0.255665
0.248444
0.240078
0.47241
0.441577
0.415914
0.389475
0.366266
0.344454
0.325207
0.307872
0.292726
0.279422
0.268095
0.258145
0.250634
0.242203
0.481843
0.449666
0.422943
0.395571
0.371602
0.349136
0.329343
0.31154
0.295996
0.28235
0.270721
0.260524
0.252734
0.244246
0.490901
0.457429
0.429685
0.401417
0.376716
0.353624
0.333306
0.315054
0.299127
0.285153
0.273233
0.262803
0.254746
0.246205
0.499572
0.464857
0.436134
0.407007
0.381606
0.357912
0.337092
0.31841
0.302117
0.287829
0.275632
0.264978
0.256667
0.248079
0.507846
0.471943
0.442284
0.412335
0.386265
0.361997
0.340698
0.321605
0.304963
0.290376
0.277915
0.267049
0.258496
0.249865
0.515715
0.478678
0.448127
0.417397
0.39069
0.365877
0.344121
0.324639
0.307664
0.292792
0.28008
0.269014
0.260232
0.251562
0.523169
0.485056
0.453659
0.422188
0.394877
0.369546
0.347358
0.327506
0.310217
0.295077
0.282127
0.270872
0.261875
0.253169
0.5302
0.49107
0.458874
0.426702
0.398822
0.373002
0.350407
0.330207
0.312621
0.297227
0.284053
0.272621
0.263422
0.254684
0.5368
0.496713
0.463765
0.430936
0.402521
0.376243
0.353265
0.332737
0.314873
0.299241
0.285859
0.27426
0.264873
0.256105
0.54296
0.501979
0.468329
0.434885
0.40597
0.379264
0.355929
0.335096
0.316972
0.301119
0.287541
0.275788
0.266227
0.257431
0.548674
0.506862
0.47256
0.438546
0.409167
0.382063
0.358397
0.337281
0.318917
0.302858
0.289099
0.277204
0.267481
0.258661
0.553936
0.511357
0.476454
0.441915
0.412108
0.384639
0.360667
0.33929
0.320704
0.304457
0.290531
0.278506
0.268636
0.259793
0.558739
0.51546
0.480007
0.444988
0.414791
0.386988
0.362737
0.341123
0.322334
0.305914
0.291838
0.279693
0.269689
0.260827
0.563078
0.519165
0.483215
0.447762
0.417213
0.389108
0.364606
0.342776
0.323805
0.30723
0.293016
0.280764
0.270641
0.261761
0.566947
0.522469
0.486076
0.450236
0.419371
0.390997
0.366271
0.34425
0.325116
0.308402
0.294066
0.281719
0.271489
0.262593
0.570343
0.525368
0.488585
0.452405
0.421265
0.392654
0.367731
0.345542
0.326265
0.309429
0.294987
0.282556
0.272234
0.263324
0.612322
0.573261
0.527858
0.490741
0.454269
0.422891
0.394077
0.368985
0.346651
0.327252
0.310312
0.295778
0.283275
0.272874
0.263952
0.615139
0.575698
0.529938
0.492541
0.455825
0.424249
0.395265
0.370031
0.347577
0.328075
0.311048
0.296438
0.283876
0.273408
0.264477
0.617396
0.577651
0.531605
0.493984
0.457071
0.425336
0.396217
0.37087
0.348319
0.328735
0.311638
0.296967
0.284357
0.273836
0.264897
0.619092
0.579117
0.532856
0.495067
0.458008
0.426153
0.396932
0.371499
0.348876
0.32923
0.312081
0.297364
0.284718
0.274157
0.265213
0.620223
0.580096
0.533691
0.495789
0.458632
0.426698
0.397409
0.371919
0.349247
0.329561
0.312376
0.297629
0.284958
0.274372
0.265424
0.534109
0.496151
0.458945
0.426971
0.397647
0.37213
0.349433
0.329726
0.312524
0.297761
0.285079
0.274479
0.265529
0.186723
0.184447
0.18197
0.178734
0.175394
0.171889
0.168292
0.164606
0.160844
0.157006
0.187227
0.184422
0.181878
0.178603
0.175275
0.171781
0.168201
0.164532
0.160788
0.156967
0.187437
0.184003
0.181369
0.178044
0.174731
0.171257
0.167705
0.164065
0.16035
0.187337
0.183454
0.180806
0.177454
0.174162
0.170708
0.167183
0.163571
0.159883
0.187082
0.182896
0.180277
0.176914
0.173643
0.170209
0.166711
0.163124
0.159462
0.186736
0.182332
0.179754
0.176383
0.173137
0.169723
0.16625
0.162689
0.186318
0.181761
0.179226
0.175851
0.172629
0.169237
0.16579
0.162253
0.185844
0.181189
0.178696
0.175322
0.172125
0.168754
0.165332
0.185328
0.180621
0.178167
0.174797
0.171626
0.168276
0.164879
0.184782
0.180061
0.177638
0.174278
0.171131
0.167804
0.184215
0.179508
0.17711
0.173765
0.170642
0.167337
0.183634
0.178964
0.176584
0.173257
0.170158
0.183044
0.178429
0.17606
0.172755
0.169679
0.182448
0.177902
0.17554
0.17226
0.181852
0.177384
0.175023
0.171771
0.181256
0.176874
0.17451
0.180664
0.176371
0.174003
0.180077
0.175877
0.179496
0.178923
0.218475
0.21848
0.218377
0.218228
0.218011
0.21774
0.21741
0.217026
0.216586
0.216092
0.215543
0.214939
0.214279
0.213563
0.21279
0.211958
0.211066
0.210113
0.209098
0.208018
0.206872
0.205657
0.204371
0.20301
0.201575
0.200054
0.198472
0.196727
0.195077
0.191438
0.218175
0.218177
0.218062
0.2179
0.217668
0.217379
0.21703
0.216622
0.216158
0.215636
0.215057
0.214421
0.213726
0.212974
0.212161
0.211288
0.210354
0.209356
0.208293
0.207164
0.205966
0.204698
0.203357
0.201939
0.200444
0.198856
0.197202
0.195325
0.19355
0.189687
0.217882
0.217889
0.217774
0.217612
0.217376
0.217082
0.216726
0.216312
0.215838
0.215307
0.214718
0.214071
0.213365
0.2126
0.211776
0.21089
0.209943
0.208932
0.207856
0.206715
0.205505
0.204224
0.20287
0.201439
0.199929
0.198321
0.196642
0.194703
0.1929
0.189241
0.217589
0.217602
0.217485
0.217322
0.217082
0.216783
0.21642
0.215997
0.215514
0.214972
0.214371
0.213711
0.212992
0.212213
0.211373
0.210472
0.209508
0.208481
0.207388
0.206229
0.205001
0.203702
0.202329
0.200877
0.199347
0.197712
0.196005
0.194025
0.192216
0.188705
0.217297
0.217313
0.217194
0.217028
0.216783
0.216477
0.216105
0.215672
0.215178
0.214624
0.214009
0.213334
0.212599
0.211803
0.210945
0.210025
0.209042
0.207994
0.206881
0.2057
0.204449
0.203127
0.201731
0.200255
0.198699
0.197036
0.195301
0.19329
0.191483
0.188077
0.217006
0.217025
0.216904
0.216735
0.216484
0.216171
0.215791
0.215348
0.214842
0.214275
0.213646
0.212956
0.212205
0.211392
0.210516
0.209578
0.208575
0.207507
0.206373
0.20517
0.203898
0.202554
0.201134
0.199635
0.198055
0.196366
0.194609
0.192579
0.190781
0.18747
0.216716
0.216738
0.216614
0.216443
0.216186
0.215867
0.215478
0.215025
0.214508
0.213928
0.213286
0.212582
0.211815
0.210985
0.210092
0.209135
0.208114
0.207026
0.205872
0.204649
0.203356
0.20199
0.20055
0.199028
0.197426
0.195716
0.19394
0.191901
0.190113
0.186892
0.216427
0.216451
0.216326
0.216152
0.21589
0.215564
0.215166
0.214704
0.214176
0.213584
0.212928
0.212209
0.211427
0.210581
0.209671
0.208697
0.207657
0.20655
0.205376
0.204134
0.20282
0.201434
0.199973
0.19843
0.196808
0.195079
0.193288
0.191245
0.189468
0.186327
0.21614
0.216167
0.216039
0.215862
0.215594
0.215262
0.214856
0.214384
0.213845
0.213241
0.212572
0.211839
0.211042
0.21018
0.209253
0.208261
0.207203
0.206078
0.204885
0.203622
0.202289
0.200883
0.199402
0.19784
0.196199
0.194453
0.192649
0.190606
0.188836
0.185769
0.215855
0.215883
0.215753
0.215573
0.215301
0.214961
0.214547
0.214066
0.213516
0.2129
0.212218
0.211471
0.210658
0.209781
0.208837
0.207828
0.206752
0.205609
0.204397
0.203116
0.201763
0.200338
0.198838
0.197257
0.195599
0.193839
0.192023
0.189982
0.188217
0.185217
0.215571
0.215601
0.215468
0.215286
0.215008
0.214662
0.21424
0.21375
0.213189
0.212561
0.211866
0.211105
0.210278
0.209385
0.208425
0.207398
0.206305
0.205144
0.203914
0.202614
0.201243
0.199799
0.198281
0.196683
0.195009
0.193235
0.19141
0.189372
0.187608
0.184668
0.215288
0.21532
0.215186
0.215
0.214717
0.214365
0.213935
0.213435
0.212864
0.212224
0.211517
0.210742
0.2099
0.208991
0.208016
0.206973
0.205862
0.204683
0.203435
0.202117
0.200728
0.199267
0.197731
0.196117
0.194427
0.192642
0.190808
0.188775
0.187008
0.184125
0.215008
0.215041
0.214905
0.214716
0.214428
0.214069
0.213632
0.213122
0.212541
0.21189
0.21117
0.210381
0.209525
0.208601
0.20761
0.20655
0.205423
0.204227
0.202962
0.201626
0.20022
0.198741
0.197189
0.195559
0.193855
0.192059
0.190217
0.188188
0.186416
0.183585
0.214729
0.214764
0.214625
0.214434
0.214141
0.213776
0.21333
0.212812
0.21222
0.211558
0.210825
0.210024
0.209153
0.208215
0.207208
0.206132
0.204988
0.203776
0.202493
0.201141
0.199717
0.198222
0.196654
0.195009
0.193292
0.191487
0.189637
0.187612
0.185832
0.183049
0.214453
0.214488
0.214348
0.214154
0.213856
0.213484
0.213031
0.212504
0.211902
0.211228
0.210484
0.209669
0.208785
0.207831
0.206809
0.205718
0.204558
0.203329
0.20203
0.200661
0.199221
0.19771
0.196126
0.194468
0.192739
0.190924
0.189067
0.187045
0.185256
0.182518
0.214179
0.214215
0.214073
0.213875
0.213573
0.213195
0.212734
0.212198
0.211586
0.210902
0.210145
0.209317
0.208419
0.207452
0.206415
0.205308
0.204132
0.202887
0.201572
0.200187
0.198732
0.197205
0.195607
0.193935
0.192194
0.190371
0.188506
0.186488
0.184688
0.181992
0.213907
0.213944
0.2138
0.213599
0.213292
0.212908
0.21244
0.211895
0.211273
0.210578
0.209809
0.208969
0.208058
0.207076
0.206024
0.204903
0.203712
0.202451
0.20112
0.199719
0.198249
0.196707
0.195095
0.193411
0.191659
0.189828
0.187956
0.18594
0.184128
0.181472
0.213637
0.213676
0.213529
0.213326
0.213013
0.212624
0.212148
0.211595
0.210963
0.210257
0.209477
0.208624
0.2077
0.206704
0.205638
0.204502
0.203296
0.20202
0.200674
0.199258
0.197772
0.196217
0.194591
0.192895
0.191132
0.189294
0.187414
0.185401
0.183576
0.180957
0.21337
0.213409
0.213261
0.213055
0.212738
0.212342
0.211859
0.211297
0.210656
0.20994
0.209148
0.208283
0.207346
0.206337
0.205257
0.204106
0.202885
0.201594
0.200234
0.198803
0.197303
0.195734
0.194095
0.192388
0.190615
0.188769
0.186883
0.184871
0.183032
0.180449
0.213106
0.213146
0.212995
0.212786
0.212465
0.212063
0.211573
0.211003
0.210353
0.209626
0.208823
0.207946
0.206996
0.205974
0.20488
0.203715
0.20248
0.201175
0.1998
0.198355
0.196841
0.195258
0.193608
0.191889
0.190106
0.188253
0.18636
0.184349
0.182497
0.179946
0.212845
0.212885
0.212733
0.21252
0.246673
0.246624
0.246649
0.246741
0.246887
0.247083
0.247328
0.247618
0.24795
0.248323
0.248734
0.249181
0.249662
0.250175
0.250719
0.251293
0.251894
0.252521
0.253174
0.25385
0.254548
0.255268
0.256008
0.256767
0.257543
0.258337
0.259146
0.259971
0.260808
0.26166
0.246621
0.246572
0.246596
0.246688
0.246833
0.247029
0.247273
0.247562
0.247893
0.248265
0.248675
0.24912
0.2496
0.250113
0.250655
0.251227
0.251827
0.252453
0.253103
0.253778
0.254474
0.255192
0.25593
0.256687
0.257461
0.258253
0.25906
0.259882
0.260717
0.261565
0.246517
0.246467
0.246491
0.246582
0.246726
0.24692
0.247163
0.24745
0.24778
0.248149
0.248557
0.249
0.249478
0.249987
0.250528
0.251097
0.251693
0.252316
0.252963
0.253634
0.254327
0.255041
0.255774
0.256527
0.257297
0.258084
0.258887
0.259704
0.260534
0.261376
0.246362
0.246312
0.246334
0.246423
0.246566
0.246758
0.246998
0.247283
0.24761
0.247976
0.248381
0.248821
0.249295
0.2498
0.250336
0.250901
0.251493
0.252111
0.252753
0.253418
0.254106
0.254814
0.255542
0.256288
0.257052
0.257832
0.258628
0.259438
0.26026
0.261093
0.246156
0.246105
0.246126
0.246213
0.246353
0.246542
0.246779
0.247061
0.247384
0.247747
0.248147
0.248582
0.249051
0.249552
0.250082
0.250641
0.251227
0.251838
0.252474
0.253132
0.253812
0.254513
0.255232
0.255971
0.256726
0.257497
0.258284
0.259084
0.259895
0.260716
0.2459
0.245847
0.245866
0.245951
0.246088
0.246274
0.246507
0.246784
0.247103
0.247461
0.247856
0.248285
0.248748
0.249242
0.249766
0.250317
0.250895
0.251499
0.252126
0.252775
0.253446
0.254137
0.254847
0.255575
0.256319
0.257079
0.257855
0.258643
0.25944
0.260247
0.245595
0.24554
0.245557
0.245638
0.245772
0.245954
0.246183
0.246455
0.246768
0.24712
0.247508
0.247931
0.248387
0.248873
0.249388
0.249931
0.2505
0.251094
0.251711
0.25235
0.253009
0.253689
0.254387
0.255102
0.255834
0.25658
0.257342
0.258116
0.258897
0.259685
0.24524
0.245184
0.245198
0.245276
0.245406
0.245583
0.245807
0.246073
0.24638
0.246725
0.247106
0.247521
0.247968
0.248445
0.248951
0.249483
0.250042
0.250624
0.251229
0.251856
0.252503
0.253169
0.253852
0.254553
0.25527
0.256001
0.256746
0.257504
0.258266
0.259033
0.244839
0.244781
0.244792
0.244866
0.244991
0.245163
0.245381
0.245641
0.24594
0.246278
0.24665
0.247056
0.247493
0.24796
0.248454
0.248975
0.249521
0.250091
0.250682
0.251295
0.251927
0.252578
0.253245
0.25393
0.254629
0.255342
0.256069
0.256808
0.257549
0.258291
0.244391
0.244331
0.244339
0.244409
0.244529
0.244695
0.244906
0.245159
0.24545
0.245779
0.246142
0.246537
0.246963
0.247418
0.2479
0.248408
0.248941
0.249495
0.250072
0.250668
0.251284
0.251917
0.252567
0.253232
0.253912
0.254605
0.255311
0.256029
0.256746
0.257461
0.243898
0.243837
0.243841
0.243906
0.24402
0.244181
0.244384
0.244629
0.244912
0.24523
0.245582
0.245966
0.24638
0.246822
0.247291
0.247784
0.248301
0.24884
0.249399
0.249978
0.250575
0.251189
0.251819
0.252463
0.253121
0.253792
0.254475
0.255169
0.255859
0.256544
0.243362
0.243298
0.243299
0.243359
0.243468
0.243621
0.243817
0.244053
0.244326
0.244633
0.244974
0.245346
0.245746
0.246174
0.246627
0.247105
0.247604
0.248125
0.248666
0.249225
0.249802
0.250395
0.251002
0.251624
0.252258
0.252904
0.253562
0.254229
0.25489
0.255542
0.242784
0.242719
0.242715
0.24277
0.242873
0.243018
0.243206
0.243432
0.243694
0.243991
0.244319
0.244677
0.245062
0.245475
0.245911
0.246371
0.246852
0.247354
0.247874
0.248412
0.248967
0.249536
0.250119
0.250716
0.251324
0.251943
0.252573
0.253212
0.253841
0.254456
0.242166
0.242099
0.242091
0.242141
0.242237
0.242375
0.242553
0.242769
0.24302
0.243303
0.243618
0.243961
0.244331
0.244726
0.245145
0.245586
0.246047
0.246527
0.247026
0.24754
0.24807
0.248615
0.249172
0.249741
0.250321
0.25091
0.25151
0.252118
0.252713
0.253288
0.24151
0.241441
0.241429
0.241473
0.241562
0.241692
0.24186
0.242065
0.242304
0.242574
0.242874
0.243201
0.243554
0.243931
0.24433
0.24475
0.24519
0.245648
0.246122
0.246612
0.247115
0.247632
0.248161
0.248701
0.24925
0.249808
0.250375
0.250949
0.251508
0.252039
0.240817
0.240746
0.240731
0.240769
0.24085
0.240971
0.24113
0.241323
0.241549
0.241804
0.242088
0.242399
0.242733
0.243091
0.243469
0.243867
0.244284
0.244717
0.245165
0.245628
0.246104
0.246591
0.24709
0.247597
0.248114
0.248637
0.249169
0.249708
0.250227
0.250713
0.24009
0.240018
0.239999
0.240031
0.240105
0.240216
0.240364
0.240545
0.240756
0.240997
0.241264
0.241556
0.241871
0.242208
0.242564
0.242939
0.24333
0.243737
0.244158
0.244592
0.245037
0.245494
0.245959
0.246433
0.246914
0.247401
0.247896
0.248396
0.248873
0.249309
0.239331
0.239258
0.239235
0.239261
0.239326
0.239428
0.239565
0.239732
0.23993
0.240154
0.240403
0.240676
0.240971
0.241285
0.241617
0.241967
0.242331
0.24271
0.243102
0.243505
0.243918
0.244341
0.244772
0.245209
0.245653
0.246101
0.246555
0.247015
0.247448
0.247831
0.238542
0.238467
0.238441
0.238461
0.238518
0.23861
0.238735
0.238889
0.23907
0.239278
0.239508
0.239761
0.240033
0.240323
0.240631
0.240953
0.24129
0.241639
0.241999
0.242369
0.242749
0.243136
0.243529
0.243928
0.244332
0.244738
0.24515
0.245566
0.245953
0.246279
0.237725
0.23765
0.237619
0.237633
0.237682
0.237764
0.237876
0.238016
0.238181
0.23837
0.238581
0.238812
0.239061
0.239326
0.239607
0.239901
0.240207
0.240525
0.240852
0.241188
0.24153
0.241879
0.242234
0.242592
0.242953
0.243315
0.243682
0.244052
0.244389
0.244656
0.236883
0.236807
0.236773
0.236781
0.236821
0.236892
0.236991
0.237116
0.237264
0.237434
0.237624
0.237832
0.238056
0.238295
0.238548
0.238812
0.239087
0.239371
0.239663
0.239961
0.240266
0.240575
0.240887
0.241202
0.241518
0.241834
0.242152
0.242474
0.242759
0.242963
0.236017
0.235941
0.235904
0.235906
0.235938
0.235997
0.236083
0.236192
0.236322
0.236472
0.23664
0.236824
0.237022
0.237233
0.237456
0.237688
0.23793
0.238178
0.238433
0.238693
0.238957
0.239223
0.239491
0.23976
0.240029
0.240296
0.240563
0.240834
0.241064
0.241202
0.23513
0.235055
0.235015
0.23501
0.235033
0.235081
0.235153
0.235245
0.235357
0.235486
0.235631
0.23579
0.235961
0.236143
0.236334
0.236533
0.236739
0.23695
0.237166
0.237384
0.237605
0.237827
0.238049
0.238269
0.238488
0.238703
0.238917
0.239132
0.239306
0.239374
0.234225
0.234151
0.234108
0.234097
0.234111
0.234147
0.234204
0.23428
0.234372
0.234479
0.2346
0.234732
0.234874
0.235025
0.235183
0.235347
0.235516
0.235688
0.235862
0.236038
0.236213
0.236388
0.23656
0.23673
0.236896
0.237056
0.237213
0.237372
0.237486
0.23748
0.233304
0.233231
0.233186
0.233169
0.233173
0.233197
0.233239
0.233297
0.233369
0.233453
0.233548
0.233653
0.233765
0.233883
0.234007
0.234134
0.234263
0.234394
0.234525
0.234655
0.234783
0.234907
0.235028
0.235144
0.235254
0.235357
0.235455
0.235554
0.235605
0.235522
0.232369
0.232298
0.232251
0.232227
0.232223
0.232234
0.23226
0.2323
0.23235
0.232411
0.232479
0.232555
0.232635
0.232719
0.232806
0.232895
0.232983
0.23307
0.233155
0.233237
0.233315
0.233388
0.233454
0.233514
0.233566
0.233608
0.233643
0.233679
0.233664
0.233501
0.231422
0.231354
0.231305
0.231276
0.231261
0.23126
0.23127
0.23129
0.231319
0.231354
0.231395
0.23144
0.231487
0.231536
0.231584
0.231632
0.231677
0.231719
0.231756
0.231788
0.231813
0.231831
0.23184
0.231841
0.231831
0.231809
0.231779
0.231748
0.231665
0.231419
0.230467
0.230402
0.230351
0.230316
0.230291
0.230277
0.23027
0.23027
0.230276
0.230285
0.230297
0.23031
0.230323
0.230334
0.230343
0.230348
0.230348
0.230342
0.230328
0.230307
0.230277
0.230237
0.230187
0.230125
0.230051
0.229962
0.229863
0.229763
0.229608
0.229273
0.229505
0.229444
0.229392
0.22935
0.229316
0.229287
0.229263
0.229243
0.229225
0.229207
0.229188
0.229168
0.229145
0.229117
0.229084
0.229044
0.228996
0.22894
0.228874
0.228798
0.22871
0.228609
0.228496
0.228369
0.228227
0.228068
0.227896
0.227721
0.22749
0.22706
0.228539
0.228482
0.228428
0.228381
0.228336
0.228294
0.228252
0.22821
0.228167
0.228121
0.228071
0.228016
0.227955
0.227886
0.227809
0.227723
0.227625
0.227517
0.227396
0.227261
0.227112
0.226948
0.226769
0.226572
0.226359
0.226127
0.225878
0.225627
0.225323
0.224811
0.227571
0.227518
0.227464
0.22741
0.227355
0.227298
0.227238
0.227174
0.227105
0.22703
0.226947
0.226856
0.226755
0.226644
0.226521
0.226386
0.226236
0.226073
0.225894
0.225698
0.225485
0.225255
0.225006
0.224738
0.224449
0.224141
0.223817
0.223488
0.223093
0.222476
0.226602
0.226555
0.226501
0.226441
0.226375
0.226304
0.226225
0.226137
0.226041
0.225935
0.225818
0.225689
0.225548
0.225392
0.225221
0.225034
0.224831
0.22461
0.22437
0.22411
0.223831
0.22353
0.223207
0.222866
0.222502
0.222112
0.2217
0.221283
0.220804
0.220086
0.225637
0.225595
0.22554
0.225474
0.225398
0.225311
0.225213
0.225102
0.224977
0.22484
0.224687
0.224519
0.224334
0.224132
0.223911
0.223671
0.223411
0.223129
0.222826
0.222499
0.222149
0.221777
0.221381
0.220957
0.220508
0.220032
0.219533
0.219027
0.218457
0.217637
0.224675
0.22464
0.224585
0.224513
0.224426
0.224324
0.224205
0.224069
0.223916
0.223745
0.223555
0.223346
0.223116
0.222865
0.222593
0.222297
0.221977
0.221632
0.221263
0.220867
0.220444
0.219993
0.219515
0.219008
0.218472
0.217908
0.217316
0.216716
0.216051
0.215125
0.22372
0.223692
0.223637
0.22356
0.223462
0.223343
0.223203
0.223041
0.222858
0.222653
0.222425
0.222173
0.221897
0.221596
0.221269
0.220915
0.220533
0.220123
0.219683
0.219214
0.218714
0.218182
0.217619
0.217024
0.216397
0.215737
0.215048
0.214349
0.213583
0.212553
0.222772
0.222753
0.222698
0.222615
0.222505
0.222369
0.222208
0.22202
0.221805
0.221565
0.221296
0.221
0.220677
0.220322
0.219939
0.219525
0.219079
0.218601
0.21809
0.217544
0.216964
0.216348
0.215697
0.215009
0.214286
0.213527
0.212734
0.211928
0.211057
0.209925
0.221834
0.221824
0.221768
0.221679
0.221557
0.221403
0.221218
0.221002
0.220754
0.220477
0.220164
0.21982
0.219443
0.219034
0.218591
0.218112
0.217598
0.217047
0.216458
0.215832
0.215167
0.214462
0.213717
0.212933
0.212108
0.211243
0.210339
0.209417
0.208436
0.207211
0.220909
0.220908
0.220854
0.220758
0.220626
0.220455
0.220245
0.220001
0.219718
0.219397
0.219043
0.218651
0.21822
0.217752
0.217244
0.216695
0.216106
0.215475
0.2148
0.214082
0.21332
0.212512
0.211658
0.210759
0.209815
0.208827
0.207798
0.20675
0.205677
0.204421
0.219998
0.220017
0.21997
0.219874
0.219741
0.219561
0.219338
0.219072
0.218766
0.218418
0.21803
0.2176
0.217129
0.216615
0.216058
0.215456
0.214809
0.214115
0.213373
0.212581
0.211738
0.210842
0.209892
0.208887
0.207828
0.206717
0.20556
0.204387
0.203287
0.202191
0.219096
0.219136
0.219098
0.219015
0.218866
0.218673
0.218431
0.218144
0.217811
0.217434
0.217013
0.216548
0.216038
0.215485
0.214886
0.214242
0.213551
0.212813
0.212027
0.211191
0.210303
0.209361
0.208363
0.207305
0.206183
0.204992
0.203734
0.202399
0.201142
0.2001
)
;

boundaryField
{
    inlet
    {
        type            zeroGradient;
    }
    outlet
    {
        type            fixedValue;
        value           nonuniform 0();
    }
    cylinder
    {
        type            zeroGradient;
    }
    top
    {
        type            symmetryPlane;
    }
    bottom
    {
        type            symmetryPlane;
    }
    defaultFaces
    {
        type            empty;
    }
    procBoundary8to4
    {
        type            processor;
        value           nonuniform List<scalar> 
46
(
0.62079
0.580586
0.580586
0.534109
0.496151
0.458945
0.426971
0.397647
0.37213
0.349433
0.329726
0.312524
0.297761
0.285079
0.274479
0.265529
0.246673
0.246624
0.246649
0.246741
0.246887
0.247083
0.247328
0.247618
0.24795
0.248323
0.248734
0.249181
0.249662
0.250175
0.250719
0.251293
0.251894
0.252521
0.253174
0.25385
0.254548
0.255268
0.256008
0.256767
0.257543
0.258337
0.259146
0.259971
0.260808
0.26166
)
;
    }
    procBoundary8to9
    {
        type            processor;
        value           nonuniform List<scalar> 
75
(
0.0860811
0.0859885
0.0915434
0.0915434
0.0929021
0.0929021
0.0937914
0.100127
0.100127
0.101689
0.108552
0.115396
0.115396
0.118098
0.125581
0.125581
0.128997
0.13723
0.145434
0.145434
0.150607
0.1597
0.16875
0.16875
0.175666
0.185721
0.195714
0.205635
0.205635
0.216602
0.227696
0.238691
0.249577
0.260344
0.260344
0.275635
0.287594
0.299395
0.311025
0.322472
0.333726
0.333726
0.35992
0.372468
0.384762
0.396789
0.408535
0.419988
0.431134
0.441961
0.452457
0.452457
0.484858
0.49611
0.506949
0.517362
0.527337
0.536861
0.545923
0.554511
0.562615
0.570225
0.577331
0.583925
0.589999
0.595545
0.600556
0.605026
0.60895
0.60895
0.669459
0.672786
0.675453
0.677456
0.678794
)
;
    }
    procBoundary8to12
    {
        type            processor;
        value           nonuniform List<scalar> 
76
(
0.0887943
0.102161
0.107231
0.112232
0.117157
0.122005
0.12677
0.13145
0.136043
0.140546
0.140546
0.140932
0.145058
0.149113
0.153096
0.153096
0.153074
0.156558
0.156558
0.156119
0.155722
0.159052
0.159052
0.158642
0.16182
0.16182
0.161392
0.164432
0.164432
0.163989
0.166875
0.166875
0.166418
0.169205
0.169205
0.168737
0.17129
0.17129
0.170815
0.173501
0.173501
0.175389
0.175389
0.17491
0.178358
0.212195
0.211787
0.21129
0.210712
0.210052
0.209315
0.208501
0.207613
0.20665
0.205615
0.204508
0.20333
0.20208
0.200761
0.199372
0.197913
0.196386
0.194791
0.193129
0.191399
0.189607
0.187747
0.185847
0.183837
0.18197
0.179451
0.212586
0.212627
0.212473
0.212195
0.212258
)
;
    }
}


// ************************************************************************* //
