/*--------------------------------*- C++ -*----------------------------------*\
  =========                 |
  \\      /  F ield         | OpenFOAM: The Open Source CFD Toolbox
   \\    /   O peration     | Website:  https://openfoam.org
    \\  /    A nd           | Version:  7
     \\/     M anipulation  |
\*---------------------------------------------------------------------------*/
FoamFile
{
    version     2.0;
    format      ascii;
    class       volScalarField;
    location    "10";
    object      p;
}
// * * * * * * * * * * * * * * * * * * * * * * * * * * * * * * * * * * * * * //

dimensions      [0 2 -2 0 0 0 0];

internalField   nonuniform List<scalar> 
2625
(
-0.018631
-0.017224
-0.0158594
-0.0145413
-0.0132738
-0.0120604
-0.0109048
-0.00981011
-0.00877895
-0.0078135
-0.00691535
-0.00608533
-0.00532372
-0.00462981
-0.00400258
-0.00343965
-0.002939
-0.00249644
-0.00210977
-0.00177258
-0.00148415
-0.0012344
-0.00102752
-0.000845798
-0.000705465
-0.000571451
-0.000487562
-0.000378771
-0.000350699
-0.000237715
-0.000282531
-0.000117471
-0.000286744
2.19633e-05
-0.000393678
0.000247975
-0.000678667
-0.0407728
-0.0391269
-0.0374829
-0.0358421
-0.0342063
-0.0325771
-0.0309568
-0.0293477
-0.0277523
-0.0261735
-0.0246145
-0.0230787
-0.0215695
-0.0200908
-0.0186465
-0.0172405
-0.015877
-0.01456
-0.0132934
-0.0120809
-0.0109261
-0.00983195
-0.00880126
-0.00783612
-0.00693811
-0.00610804
-0.0053462
-0.0046519
-0.0040241
-0.00346043
-0.00295892
-0.00251536
-0.00212762
-0.00178923
-0.00149963
-0.00124857
-0.00104057
-0.000857462
-0.000716237
-0.000580707
-0.000496406
-0.000385746
-0.000358193
-0.000242409
-0.000289571
-0.000119496
-0.000294778
2.38172e-05
-0.000405128
0.000256297
-0.000697707
-0.0407762
-0.0391309
-0.0374874
-0.0358472
-0.034212
-0.0325836
-0.030964
-0.0293556
-0.0277611
-0.0261833
-0.0246253
-0.0230904
-0.0215823
-0.0201047
-0.0186615
-0.0172566
-0.0158942
-0.0145782
-0.0133125
-0.0121009
-0.0109468
-0.00985337
-0.00882316
-0.00785834
-0.00696047
-0.00613038
-0.00536834
-0.00467365
-0.00404531
-0.00348093
-0.00297858
-0.00253404
-0.00214525
-0.00180569
-0.00151496
-0.00126261
-0.00105351
-0.000869031
-0.000726925
-0.000589901
-0.000505187
-0.000392687
-0.000365635
-0.000247095
-0.000296554
-0.000121546
-0.000302727
2.55895e-05
-0.000416435
0.000264443
-0.000716522
-0.0407792
-0.0391345
-0.0374916
-0.035852
-0.0342174
-0.0325896
-0.0309708
-0.0293632
-0.0277696
-0.0261926
-0.0246356
-0.0231018
-0.0215947
-0.0201182
-0.0186761
-0.0172723
-0.015911
-0.014596
-0.0133313
-0.0121205
-0.0109672
-0.00987436
-0.00884465
-0.00788015
-0.00698245
-0.00615235
-0.00539013
-0.00469508
-0.00406621
-0.00350115
-0.00299798
-0.00255249
-0.00216268
-0.00182197
-0.00153012
-0.0012765
-0.00106633
-0.000880501
-0.000737524
-0.000599029
-0.000513901
-0.000399591
-0.000373021
-0.000251771
-0.000303474
-0.000123621
-0.000310586
2.72794e-05
-0.000427591
0.000272411
-0.000735103
-0.040782
-0.0391378
-0.0374955
-0.0358565
-0.0342225
-0.0325954
-0.0309773
-0.0293705
-0.0277777
-0.0262017
-0.0246456
-0.0231128
-0.0216068
-0.0201313
-0.0186903
-0.0172876
-0.0159273
-0.0146134
-0.0133496
-0.0121397
-0.0109872
-0.00989494
-0.00886572
-0.00790157
-0.00700405
-0.00617395
-0.00541156
-0.00471617
-0.0040868
-0.00352108
-0.00301713
-0.0025707
-0.0021799
-0.00183807
-0.00154512
-0.00129026
-0.00107902
-0.000891871
-0.000748032
-0.00060809
-0.000522548
-0.000406456
-0.000380348
-0.000256437
-0.000310331
-0.000125722
-0.000318351
2.88839e-05
-0.000438592
0.000280196
-0.000753443
-0.0407844
-0.0391408
-0.0374991
-0.0358607
-0.0342273
-0.0326009
-0.0309835
-0.0293775
-0.0277855
-0.0262103
-0.0246552
-0.0231234
-0.0216184
-0.020144
-0.0187041
-0.0173025
-0.0159433
-0.0146303
-0.0133675
-0.0121585
-0.0110067
-0.0099151
-0.00888638
-0.00792258
-0.00702524
-0.00619517
-0.00543263
-0.00473691
-0.00410707
-0.00354071
-0.00303599
-0.00258866
-0.00219688
-0.00185395
-0.00155993
-0.00130385
-0.00109157
-0.000903115
-0.000758426
-0.000617062
-0.000531105
-0.000413264
-0.0003876
-0.000261078
-0.000317109
-0.000127837
-0.00032601
3.04098e-05
-0.000449428
0.000287802
-0.00077153
-0.0407866
-0.0391436
-0.0375024
-0.0358646
-0.0342319
-0.0326061
-0.0309894
-0.0293841
-0.0277929
-0.0262187
-0.0246645
-0.0231337
-0.0216298
-0.0201564
-0.0187175
-0.017317
-0.0159588
-0.0146468
-0.013385
-0.0121768
-0.0110258
-0.00993484
-0.00890662
-0.00794318
-0.00704604
-0.006216
-0.00545333
-0.00475731
-0.004127
-0.00356003
-0.00305456
-0.00260635
-0.00221363
-0.00186962
-0.00157455
-0.00131727
-0.00110396
-0.000914237
-0.000768707
-0.000625948
-0.000539575
-0.000420019
-0.000394776
-0.000265697
-0.000323808
-0.000129972
-0.000333561
3.1853e-05
-0.000460093
0.000295224
-0.000789358
-0.0407885
-0.0391461
-0.0375055
-0.0358683
-0.0342362
-0.032611
-0.030995
-0.0293905
-0.0278001
-0.0262268
-0.0246735
-0.0231436
-0.0216407
-0.0201684
-0.0187306
-0.0173311
-0.0159739
-0.014663
-0.013402
-0.0121947
-0.0110445
-0.00995416
-0.00892645
-0.00796337
-0.00706645
-0.00623645
-0.00547366
-0.00477736
-0.00414661
-0.00357904
-0.00307285
-0.00262379
-0.00223014
-0.00188509
-0.00158898
-0.00133054
-0.00111621
-0.000925236
-0.000778877
-0.000634748
-0.000547958
-0.000426719
-0.000401878
-0.000270295
-0.000330428
-0.000132126
-0.000341003
3.3211e-05
-0.000470585
0.000302458
-0.000806919
-0.0407902
-0.0391484
-0.0375084
-0.0358717
-0.0342402
-0.0326157
-0.0310004
-0.0293966
-0.027807
-0.0262345
-0.0246822
-0.0231533
-0.0216513
-0.0201801
-0.0187433
-0.0173448
-0.0159887
-0.0146787
-0.0134187
-0.0122123
-0.0110627
-0.00997306
-0.00894587
-0.00798316
-0.00708645
-0.00625651
-0.00549362
-0.00479705
-0.00416589
-0.00359774
-0.00309086
-0.00264096
-0.00224641
-0.00190033
-0.00160322
-0.00134363
-0.00112831
-0.000936108
-0.00078893
-0.000643458
-0.000556249
-0.000433363
-0.000408901
-0.00027487
-0.000336964
-0.000134299
-0.000348331
3.44827e-05
-0.000480899
0.000309502
-0.000824205
-0.0407917
-0.0391504
-0.037511
-0.0358749
-0.034244
-0.0326201
-0.0310055
-0.0294024
-0.0278136
-0.026242
-0.0246905
-0.0231626
-0.0216616
-0.0201914
-0.0187556
-0.0173582
-0.016003
-0.014694
-0.013435
-0.0122293
-0.0110806
-0.00999155
-0.00896488
-0.00800254
-0.00710606
-0.00627619
-0.00551321
-0.00481639
-0.00418483
-0.00361613
-0.00310857
-0.00265786
-0.00226243
-0.00191536
-0.00161726
-0.00135654
-0.00114026
-0.00094685
-0.000798863
-0.000652075
-0.000564446
-0.000439948
-0.000415842
-0.000279419
-0.000343414
-0.000136491
-0.000355542
3.56673e-05
-0.000491029
0.000316354
-0.000841208
-0.0407929
-0.0391522
-0.0375134
-0.0358779
-0.0342476
-0.0326243
-0.0310103
-0.029408
-0.02782
-0.0262491
-0.0246986
-0.0231715
-0.0216716
-0.0202023
-0.0187676
-0.0173712
-0.016017
-0.014709
-0.0134508
-0.012246
-0.011098
-0.0100096
-0.00898347
-0.00802152
-0.00712527
-0.00629548
-0.00553243
-0.00483537
-0.00420343
-0.00363419
-0.00312599
-0.00267449
-0.00227821
-0.00193016
-0.00163109
-0.00136928
-0.00115204
-0.000957455
-0.000808671
-0.000660594
-0.000572544
-0.000446469
-0.000422698
-0.000283941
-0.000349773
-0.0001387
-0.000362632
3.67642e-05
-0.000500971
0.00032301
-0.000857921
-0.0407939
-0.0391538
-0.0375156
-0.0358807
-0.0342509
-0.0326283
-0.0310149
-0.0294133
-0.0278261
-0.026256
-0.0247063
-0.0231802
-0.0216812
-0.0202129
-0.0187792
-0.0173838
-0.0160306
-0.0147235
-0.0134662
-0.0122623
-0.011115
-0.0100273
-0.00900165
-0.00804008
-0.00714408
-0.00631438
-0.00555126
-0.00485399
-0.00422168
-0.00365194
-0.0031431
-0.00269084
-0.00229372
-0.00194473
-0.00164472
-0.00138184
-0.00116366
-0.000967921
-0.00081835
-0.000669012
-0.000580538
-0.000452925
-0.000429463
-0.000288434
-0.000356039
-0.000140927
-0.000369596
3.7773e-05
-0.000510719
0.000329469
-0.000874336
-0.0407948
-0.0391553
-0.0375175
-0.0358832
-0.034254
-0.032632
-0.0310193
-0.0294184
-0.0278319
-0.0262627
-0.0247138
-0.0231886
-0.0216905
-0.0202232
-0.0187904
-0.017396
-0.0160438
-0.0147377
-0.0134813
-0.0122782
-0.0111316
-0.0100445
-0.00901941
-0.00805824
-0.00716249
-0.00633289
-0.00556972
-0.00487225
-0.00423959
-0.00366936
-0.00315991
-0.00270692
-0.00230898
-0.00195906
-0.00165813
-0.00139421
-0.00117511
-0.000978242
-0.000827895
-0.000677324
-0.000588426
-0.000459312
-0.000436136
-0.000292895
-0.000362207
-0.000143168
-0.000376431
3.86933e-05
-0.000520268
0.000335728
-0.000890443
-0.0407954
-0.0391565
-0.0375193
-0.0358856
-0.034257
-0.0326355
-0.0310235
-0.0294233
-0.0278375
-0.0262691
-0.024721
-0.0231967
-0.0216995
-0.0202332
-0.0188014
-0.0174079
-0.0160567
-0.0147515
-0.0134959
-0.0122937
-0.0111478
-0.0100614
-0.00903677
-0.00807598
-0.00718049
-0.006351
-0.0055878
-0.00489014
-0.00425716
-0.00368645
-0.00317641
-0.0027227
-0.00232398
-0.00197316
-0.00167133
-0.00140638
-0.00118638
-0.000988414
-0.000837302
-0.000685528
-0.000596204
-0.000465626
-0.000442713
-0.000297321
-0.000368274
-0.000145424
-0.000383133
3.95249e-05
-0.000529614
0.000341785
-0.000906236
-0.0407959
-0.0391576
-0.037521
-0.0358878
-0.0342597
-0.0326389
-0.0310275
-0.0294279
-0.0278428
-0.0262752
-0.024728
-0.0232045
-0.0217082
-0.0202428
-0.018812
-0.0174195
-0.0160692
-0.0147649
-0.0135102
-0.0123087
-0.0111636
-0.0100778
-0.00905371
-0.00809332
-0.00719809
-0.00636872
-0.00560549
-0.00490766
-0.00427436
-0.0037032
-0.0031926
-0.00273819
-0.00233871
-0.00198701
-0.0016843
-0.00141836
-0.00119747
-0.000998432
-0.000846567
-0.000693618
-0.000603866
-0.000471865
-0.000449189
-0.000301711
-0.000374237
-0.000147693
-0.000389699
4.02678e-05
-0.000538751
0.000347639
-0.000921707
-0.0407963
-0.0391585
-0.0375225
-0.0358898
-0.0342623
-0.032642
-0.0310312
-0.0294323
-0.027848
-0.0262811
-0.0247347
-0.023212
-0.0217167
-0.0202522
-0.0188222
-0.0174307
-0.0160813
-0.0147779
-0.0135241
-0.0123234
-0.011179
-0.0100938
-0.00907024
-0.00811025
-0.00721528
-0.00638604
-0.00562279
-0.0049248
-0.00429121
-0.00371962
-0.00320846
-0.00275339
-0.00235316
-0.00200061
-0.00169705
-0.00143014
-0.00120838
-0.00100829
-0.000855684
-0.000701591
-0.000611409
-0.000478024
-0.000455561
-0.000306062
-0.000380093
-0.000149974
-0.000396124
4.09222e-05
-0.000547676
0.000353288
-0.000936847
-0.0407965
-0.0391593
-0.0375238
-0.0358916
-0.0342647
-0.032645
-0.0310348
-0.0294366
-0.0278529
-0.0262867
-0.0247411
-0.0232193
-0.0217248
-0.0202612
-0.0188322
-0.0174415
-0.0160931
-0.0147905
-0.0135376
-0.0123377
-0.011194
-0.0101094
-0.00908636
-0.00812676
-0.00723206
-0.00640295
-0.00563971
-0.00494157
-0.0043077
-0.00373569
-0.00322401
-0.00276828
-0.00236733
-0.00201396
-0.00170956
-0.0014417
-0.0012191
-0.00101799
-0.000864649
-0.000709442
-0.00061883
-0.000484101
-0.000461826
-0.000310371
-0.000385837
-0.000152264
-0.000402406
4.14885e-05
-0.000556383
0.000358729
-0.000951649
-0.0407966
-0.03916
-0.037525
-0.0358933
-0.0342669
-0.0326478
-0.0310382
-0.0294406
-0.0278576
-0.0262922
-0.0247473
-0.0232263
-0.0217327
-0.0202699
-0.0188418
-0.0174521
-0.0161045
-0.0148028
-0.0135507
-0.0123516
-0.0112086
-0.0101246
-0.00910207
-0.00814287
-0.00724844
-0.00641947
-0.00565623
-0.00495796
-0.00432382
-0.00375141
-0.00323922
-0.00278287
-0.00238122
-0.00202705
-0.00172183
-0.00145305
-0.00122962
-0.00102752
-0.000873458
-0.000717167
-0.000626123
-0.000490092
-0.00046798
-0.000314635
-0.000391467
-0.000154562
-0.000408541
4.19671e-05
-0.000564868
0.000363962
-0.000966106
-0.0407965
-0.0391605
-0.037526
-0.0358949
-0.0342691
-0.0326505
-0.0310415
-0.0294444
-0.0278621
-0.0262974
-0.0247533
-0.0232331
-0.0217403
-0.0202784
-0.0188511
-0.0174623
-0.0161156
-0.0148148
-0.0135634
-0.0123651
-0.0112228
-0.0101394
-0.00911736
-0.00815856
-0.0072644
-0.00643558
-0.00567235
-0.00497396
-0.00433957
-0.00376679
-0.0032541
-0.00279715
-0.00239482
-0.00203987
-0.00173386
-0.00146419
-0.00123995
-0.00103687
-0.000882107
-0.000724762
-0.000633285
-0.000495993
-0.000474018
-0.000318852
-0.000396978
-0.000156867
-0.000414525
4.23589e-05
-0.000573127
0.000368985
-0.000980209
-0.0407964
-0.0391609
-0.037527
-0.0358964
-0.034271
-0.032653
-0.0310445
-0.0294481
-0.0278665
-0.0263024
-0.024759
-0.0232396
-0.0217476
-0.0202865
-0.0188601
-0.0174721
-0.0161263
-0.0148263
-0.0135758
-0.0123782
-0.0112366
-0.0101538
-0.00913225
-0.00817384
-0.00727996
-0.00645128
-0.00568808
-0.00498958
-0.00435495
-0.0037818
-0.00326865
-0.00281111
-0.00240812
-0.00205242
-0.00174564
-0.0014751
-0.00125007
-0.00104605
-0.000890589
-0.000732222
-0.000640311
-0.0005018
-0.000479939
-0.000323018
-0.000402369
-0.000159175
-0.000420356
4.26645e-05
-0.000581156
0.000373796
-0.000993951
-0.0407962
-0.0391612
-0.0375278
-0.0358977
-0.0342729
-0.0326554
-0.0310475
-0.0294516
-0.0278706
-0.0263072
-0.0247645
-0.0232459
-0.0217547
-0.0202944
-0.0188689
-0.0174817
-0.0161367
-0.0148375
-0.0135878
-0.0123909
-0.01125
-0.0101678
-0.00914672
-0.0081887
-0.0072951
-0.00646658
-0.0057034
-0.0050048
-0.00436996
-0.00379646
-0.00328285
-0.00282475
-0.00242113
-0.00206469
-0.00175716
-0.00148578
-0.00125998
-0.00105505
-0.0008989
-0.000739544
-0.000647197
-0.00050751
-0.000485736
-0.000327131
-0.000407635
-0.000161486
-0.000426029
4.28853e-05
-0.000588949
0.000378396
-0.00100733
-0.0407958
-0.0391614
-0.0375285
-0.0358989
-0.0342746
-0.0326576
-0.0310502
-0.029455
-0.0278746
-0.0263118
-0.0247699
-0.0232519
-0.0217615
-0.020302
-0.0188773
-0.017491
-0.0161468
-0.0148484
-0.0135994
-0.0124032
-0.011263
-0.0101813
-0.00916079
-0.00820315
-0.00730982
-0.00648146
-0.00571833
-0.00501964
-0.00438458
-0.00381075
-0.00329671
-0.00283807
-0.00243383
-0.00207668
-0.00176843
-0.00149623
-0.00126967
-0.00106386
-0.000907037
-0.000746721
-0.000653939
-0.000513119
-0.000491408
-0.000331186
-0.000412774
-0.000163796
-0.000431541
4.30224e-05
-0.000596505
0.000382783
-0.00102032
-0.0407954
-0.0391615
-0.0375291
-0.0359001
-0.0342762
-0.0326597
-0.0310529
-0.0294582
-0.0278784
-0.0263163
-0.024775
-0.0232578
-0.021768
-0.0203094
-0.0188854
-0.0174999
-0.0161565
-0.0148589
-0.0136107
-0.0124152
-0.0112756
-0.0101945
-0.00917444
-0.00821718
-0.00732413
-0.00649594
-0.00573284
-0.00503407
-0.00439882
-0.00382468
-0.00331022
-0.00285105
-0.00244622
-0.00208839
-0.00177943
-0.00150644
-0.00127914
-0.00107247
-0.000914993
-0.000753751
-0.000660533
-0.000518622
-0.00049695
-0.000335182
-0.000417781
-0.000166103
-0.000436891
4.30774e-05
-0.000603818
0.000386956
-0.00103294
-0.040795
-0.0391616
-0.0375297
-0.0359011
-0.0342777
-0.0326617
-0.0310554
-0.0294612
-0.027882
-0.0263205
-0.0247799
-0.0232634
-0.0217744
-0.0203165
-0.0188933
-0.0175085
-0.0161659
-0.0148691
-0.0136216
-0.0124268
-0.0112878
-0.0102073
-0.00918768
-0.0082308
-0.00733803
-0.00650999
-0.00574694
-0.0050481
-0.00441267
-0.00383823
-0.00332336
-0.0028637
-0.00245829
-0.00209981
-0.00179015
-0.0015164
-0.00128839
-0.00108089
-0.000922764
-0.000760627
-0.000666974
-0.000524016
-0.000502359
-0.000339115
-0.000422654
-0.000168404
-0.000442074
4.3052e-05
-0.000610885
0.000390915
-0.00104517
-0.0407944
-0.0391616
-0.0375302
-0.035902
-0.0342791
-0.0326636
-0.0310578
-0.0294642
-0.0278855
-0.0263246
-0.0247846
-0.0232687
-0.0217805
-0.0203233
-0.0189009
-0.0175169
-0.016175
-0.0148789
-0.0136321
-0.012438
-0.0112996
-0.0102196
-0.0092005
-0.008244
-0.0073515
-0.00652363
-0.00576063
-0.00506173
-0.00442612
-0.0038514
-0.00333615
-0.00287601
-0.00247004
-0.00211092
-0.00180061
-0.00152612
-0.00129741
-0.0010891
-0.000930344
-0.000767345
-0.000673258
-0.000529296
-0.00050763
-0.00034298
-0.00042739
-0.000170697
-0.000447088
4.29482e-05
-0.000617702
0.000394661
-0.001057
-0.0407938
-0.0391615
-0.0375306
-0.0359029
-0.0342804
-0.0326654
-0.03106
-0.0294669
-0.0278888
-0.0263285
-0.0247891
-0.0232739
-0.0217863
-0.0203299
-0.0189081
-0.0175249
-0.0161837
-0.0148884
-0.0136423
-0.0124488
-0.011311
-0.0102316
-0.00921291
-0.00825678
-0.00736455
-0.00653684
-0.0057739
-0.00507495
-0.00443918
-0.00386418
-0.00334857
-0.00288796
-0.00248147
-0.00212173
-0.00181078
-0.00153557
-0.00130619
-0.00109711
-0.00093773
-0.000773901
-0.00067938
-0.000534458
-0.000512761
-0.000346775
-0.000431986
-0.000172978
-0.00045193
4.27681e-05
-0.000624267
0.000398193
-0.00106843
-0.0407932
-0.0391614
-0.0375309
-0.0359037
-0.0342817
-0.0326671
-0.0310622
-0.0294696
-0.027892
-0.0263322
-0.0247935
-0.0232789
-0.021792
-0.0203362
-0.0189152
-0.0175326
-0.0161922
-0.0148975
-0.0136521
-0.0124593
-0.011322
-0.0102431
-0.00922491
-0.00826913
-0.00737717
-0.00654963
-0.00578676
-0.00508776
-0.00445183
-0.00387658
-0.00336062
-0.00289957
-0.00249256
-0.00213224
-0.00182066
-0.00154477
-0.00131472
-0.0011049
-0.000944915
-0.00078029
-0.000685336
-0.000539498
-0.000517747
-0.000350496
-0.000436438
-0.000175245
-0.000456598
4.2514e-05
-0.000630575
0.000401511
-0.00107944
-0.0407926
-0.0391612
-0.0375312
-0.0359044
-0.0342828
-0.0326687
-0.0310643
-0.0294721
-0.027895
-0.0263358
-0.0247976
-0.0232837
-0.0217974
-0.0203422
-0.0189219
-0.0175401
-0.0162003
-0.0149063
-0.0136616
-0.0124693
-0.0113327
-0.0102543
-0.00923649
-0.00828107
-0.00738937
-0.006562
-0.00579919
-0.00510015
-0.00446408
-0.00388859
-0.00337229
-0.00291082
-0.00250332
-0.00214243
-0.00183025
-0.00155369
-0.00132301
-0.00111247
-0.000951895
-0.000786505
-0.000691122
-0.000544412
-0.000522584
-0.000354138
-0.000440743
-0.000177494
-0.000461088
4.21888e-05
-0.000636625
0.000404617
-0.00109005
-0.0407919
-0.039161
-0.0375314
-0.0359051
-0.0342839
-0.0326702
-0.0310662
-0.0294745
-0.0278979
-0.0263393
-0.0248016
-0.0232882
-0.0218026
-0.0203481
-0.0189284
-0.0175472
-0.0162081
-0.0149148
-0.0136707
-0.012479
-0.0113429
-0.010265
-0.00924765
-0.00829258
-0.00740113
-0.00657393
-0.00581119
-0.00511212
-0.00447592
-0.0039002
-0.00338358
-0.0029217
-0.00251373
-0.00215229
-0.00183954
-0.00156235
-0.00133105
-0.00111981
-0.000958664
-0.000792543
-0.000696733
-0.000549194
-0.00052727
-0.000357699
-0.000444899
-0.000179722
-0.000465399
4.17952e-05
-0.000642413
0.000407512
-0.00110023
-0.0407912
-0.0391608
-0.0375316
-0.0359057
-0.0342849
-0.0326716
-0.0310681
-0.0294768
-0.0279007
-0.0263425
-0.0248054
-0.0232926
-0.0218075
-0.0203537
-0.0189346
-0.0175541
-0.0162156
-0.0149229
-0.0136794
-0.0124883
-0.0113528
-0.0102754
-0.00925839
-0.00830366
-0.00741247
-0.00658543
-0.00582276
-0.00512366
-0.00448734
-0.0039114
-0.00339448
-0.00293222
-0.00252379
-0.00216183
-0.00184852
-0.00157072
-0.00133882
-0.00112693
-0.000965217
-0.000798398
-0.000702164
-0.000553841
-0.000531799
-0.000361173
-0.000448903
-0.000181924
-0.000469528
4.13364e-05
-0.000647937
0.000410196
-0.00110999
-0.0407905
-0.0391605
-0.0375318
-0.0359062
-0.0342859
-0.032673
-0.0310698
-0.029479
-0.0279033
-0.0263457
-0.0248091
-0.0232968
-0.0218123
-0.020359
-0.0189406
-0.0175606
-0.0162228
-0.0149307
-0.0136878
-0.0124973
-0.0113622
-0.0102853
-0.00926872
-0.00831431
-0.00742337
-0.00659649
-0.00583389
-0.00513477
-0.00449834
-0.0039222
-0.00340499
-0.00294235
-0.00253349
-0.00217104
-0.00185719
-0.00157881
-0.00134633
-0.00113381
-0.000971549
-0.000804065
-0.000707411
-0.000558347
-0.000536169
-0.000364557
-0.000452751
-0.000184098
-0.000473474
4.08159e-05
-0.000653195
0.000412671
-0.00111931
-0.0407898
-0.0391603
-0.0375319
-0.0359068
-0.0342868
-0.0326742
-0.0310715
-0.0294811
-0.0279059
-0.0263486
-0.0248125
-0.0233008
-0.0218168
-0.0203641
-0.0189463
-0.0175669
-0.0162297
-0.0149382
-0.0136958
-0.0125059
-0.0113713
-0.0102948
-0.00927862
-0.00832453
-0.00743383
-0.00660711
-0.00584459
-0.00514545
-0.00450891
-0.00393258
-0.0034151
-0.00295211
-0.00254283
-0.0021799
-0.00186554
-0.0015866
-0.00135357
-0.00114044
-0.000977654
-0.000809539
-0.000712469
-0.000562708
-0.000540376
-0.000367846
-0.000456442
-0.000186239
-0.000477233
4.02372e-05
-0.000658185
0.00041494
-0.0011282
-0.040789
-0.03916
-0.037532
-0.0359072
-0.0342876
-0.0326754
-0.0310731
-0.0294831
-0.0279083
-0.0263515
-0.0248159
-0.0233046
-0.0218212
-0.020369
-0.0189517
-0.0175729
-0.0162363
-0.0149453
-0.0137035
-0.0125141
-0.01138
-0.0103039
-0.0092881
-0.00833431
-0.00744385
-0.00661729
-0.00585484
-0.00515569
-0.00451905
-0.00394254
-0.0034248
-0.00296148
-0.0025518
-0.00218842
-0.00187357
-0.0015941
-0.00136053
-0.00114683
-0.000983527
-0.000814813
-0.000717334
-0.000566919
-0.000544416
-0.000371036
-0.000459972
-0.000188342
-0.000480806
3.96045e-05
-0.000662904
0.000417005
-0.00113664
-0.0407883
-0.0391597
-0.0375321
-0.0359077
-0.0342884
-0.0326766
-0.0310746
-0.029485
-0.0279105
-0.0263542
-0.024819
-0.0233082
-0.0218253
-0.0203737
-0.0189569
-0.0175787
-0.0162426
-0.0149521
-0.0137108
-0.0125219
-0.0113882
-0.0103126
-0.00929715
-0.00834366
-0.00745343
-0.00662702
-0.00586464
-0.00516548
-0.00452876
-0.00395207
-0.00343409
-0.00297045
-0.0025604
-0.00219659
-0.00188127
-0.00160129
-0.00136721
-0.00115296
-0.000989163
-0.000819883
-0.000722001
-0.000570974
-0.000548285
-0.000374122
-0.000463338
-0.000190404
-0.000484189
3.8922e-05
-0.000667352
0.000418868
-0.00114464
-0.0407876
-0.0391594
-0.0375322
-0.0359081
-0.0342891
-0.0326776
-0.031076
-0.0294868
-0.0279127
-0.0263568
-0.024822
-0.0233117
-0.0218292
-0.0203781
-0.0189618
-0.0175841
-0.0162485
-0.0149586
-0.0137178
-0.0125293
-0.0113961
-0.0103209
-0.00930577
-0.00835257
-0.00746255
-0.00663629
-0.00587398
-0.00517483
-0.00453802
-0.00396118
-0.00344296
-0.00297903
-0.00256861
-0.0022044
-0.00188863
-0.00160817
-0.0013736
-0.00115883
-0.000994555
-0.000824743
-0.000726464
-0.00057487
-0.000551979
-0.0003771
-0.000466539
-0.00019242
-0.000487381
3.81942e-05
-0.000671527
0.000420534
-0.00115219
-0.0407869
-0.0391591
-0.0375322
-0.0359084
-0.0342898
-0.0326787
-0.0310773
-0.0294884
-0.0279147
-0.0263592
-0.0248248
-0.023315
-0.0218329
-0.0203822
-0.0189665
-0.0175893
-0.0162542
-0.0149647
-0.0137244
-0.0125364
-0.0114036
-0.0103287
-0.00931395
-0.00836103
-0.00747123
-0.00664511
-0.00588287
-0.00518371
-0.00454683
-0.00396984
-0.0034514
-0.00298719
-0.00257644
-0.00221184
-0.00189564
-0.00161473
-0.00137969
-0.00116444
-0.000999699
-0.000829387
-0.000730721
-0.0005786
-0.000555496
-0.000379965
-0.000469571
-0.000194386
-0.000490381
3.74261e-05
-0.000675429
0.000422005
-0.00115928
-0.0407863
-0.0391588
-0.0375322
-0.0359088
-0.0342905
-0.0326796
-0.0310786
-0.02949
-0.0279167
-0.0263615
-0.0248275
-0.023318
-0.0218364
-0.0203862
-0.0189709
-0.0175941
-0.0162595
-0.0149705
-0.0137307
-0.012543
-0.0114107
-0.0103362
-0.0093217
-0.00836904
-0.00747944
-0.00665346
-0.0058913
-0.00519214
-0.00455518
-0.00397806
-0.00345942
-0.00299494
-0.00258387
-0.00221891
-0.00190231
-0.00162096
-0.00138548
-0.00116977
-0.00100459
-0.00083381
-0.000734765
-0.000582159
-0.00055883
-0.000382711
-0.000472432
-0.000196295
-0.000493188
3.66228e-05
-0.000679057
0.000423286
-0.00116592
-0.0407856
-0.0391585
-0.0375322
-0.0359091
-0.0342911
-0.0326805
-0.0310798
-0.0294915
-0.0279185
-0.0263636
-0.02483
-0.0233209
-0.0218397
-0.0203899
-0.018975
-0.0175987
-0.0162645
-0.014976
-0.0137365
-0.0125493
-0.0114173
-0.0103432
-0.00932901
-0.0083766
-0.00748719
-0.00666135
-0.00589925
-0.0052001
-0.00456308
-0.00398583
-0.00346699
-0.00300227
-0.0025909
-0.00222559
-0.00190862
-0.00162687
-0.00139096
-0.00117482
-0.00100922
-0.000838006
-0.000738592
-0.000585543
-0.000561979
-0.000385334
-0.00047512
-0.000198143
-0.000495802
3.579e-05
-0.000682411
0.000424381
-0.0011721
-0.040785
-0.0391582
-0.0375322
-0.0359094
-0.0342916
-0.0326813
-0.0310809
-0.0294929
-0.0279202
-0.0263656
-0.0248324
-0.0233236
-0.0218428
-0.0203934
-0.0189789
-0.017603
-0.0162693
-0.0149811
-0.0137421
-0.0125552
-0.0114236
-0.0103497
-0.00933588
-0.0083837
-0.00749448
-0.00666876
-0.00590673
-0.00520758
-0.0045705
-0.00399313
-0.00347412
-0.00300917
-0.00259752
-0.00223189
-0.00191456
-0.00163243
-0.00139613
-0.00117958
-0.00101358
-0.000841968
-0.000742196
-0.000588745
-0.000564939
-0.000387829
-0.000477633
-0.000199925
-0.00049822
3.49335e-05
-0.00068549
0.000425296
-0.00117782
-0.0391579
-0.0375322
-0.0359096
-0.0342921
-0.0326821
-0.0310819
-0.0294942
-0.0279218
-0.0263675
-0.0248346
-0.0233262
-0.0218457
-0.0203967
-0.0189826
-0.017607
-0.0162737
-0.0149859
-0.0137472
-0.0125608
-0.0114295
-0.0103559
-0.00934229
-0.00839034
-0.00750129
-0.00667569
-0.00591373
-0.00521459
-0.00457746
-0.00399998
-0.0034808
-0.00301564
-0.00260372
-0.0022378
-0.00192013
-0.00163765
-0.00140097
-0.00118406
-0.00101767
-0.00084569
-0.000745574
-0.00059176
-0.000567706
-0.00039019
-0.000479969
-0.000201635
-0.000500444
3.40597e-05
-0.000688297
0.000426037
-0.00118308
-0.0391576
-0.0375322
-0.0359099
-0.0342926
-0.0326828
-0.0310829
-0.0294954
-0.0279232
-0.0263693
-0.0248366
-0.0233285
-0.0218484
-0.0203997
-0.0189859
-0.0176108
-0.0162778
-0.0149904
-0.013752
-0.0125659
-0.0114349
-0.0103616
-0.00934826
-0.00839651
-0.00750762
-0.00668214
-0.00592023
-0.0052211
-0.00458392
-0.00400635
-0.00348702
-0.00302166
-0.0026095
-0.0022433
-0.00192532
-0.00164252
-0.00140549
-0.00118823
-0.00102149
-0.000849167
-0.00074872
-0.000594582
-0.000570277
-0.000392411
-0.000482124
-0.000203267
-0.000502472
3.31752e-05
-0.000690831
0.00042661
-0.00118787
-0.0391574
-0.0375322
-0.0359101
-0.0342931
-0.0326835
-0.0310837
-0.0294965
-0.0279246
-0.0263709
-0.0248385
-0.0233307
-0.0218509
-0.0204025
-0.0189891
-0.0176142
-0.0162815
-0.0149945
-0.0137565
-0.0125706
-0.0114399
-0.0103669
-0.00935376
-0.00840221
-0.00751347
-0.00668809
-0.00592625
-0.00522712
-0.0045899
-0.00401223
-0.00349276
-0.00302722
-0.00261484
-0.00224839
-0.00193012
-0.00164702
-0.00140967
-0.00119209
-0.00102502
-0.000852393
-0.00075163
-0.000597206
-0.000572648
-0.000394488
-0.000484099
-0.000204815
-0.000504304
3.22871e-05
-0.000693095
0.000427021
-0.0011922
-0.0391571
-0.0375322
-0.0359103
-0.0342935
-0.0326841
-0.0310845
-0.0294975
-0.0279258
-0.0263724
-0.0248402
-0.0233327
-0.0218531
-0.020405
-0.0189919
-0.0176174
-0.016285
-0.0149982
-0.0137605
-0.012575
-0.0114445
-0.0103717
-0.00935881
-0.00840743
-0.00751883
-0.00669355
-0.00593176
-0.00523264
-0.00459538
-0.00401763
-0.00349804
-0.00303233
-0.00261974
-0.00225307
-0.00193453
-0.00165116
-0.0014135
-0.00119565
-0.00102826
-0.00085536
-0.000754298
-0.000599626
-0.000574816
-0.000396414
-0.00048589
-0.000206273
-0.000505942
3.1403e-05
-0.00069509
0.00042728
-0.00119606
-0.0391569
-0.0375322
-0.0359105
-0.0342938
-0.0326846
-0.0310853
-0.0294985
-0.0279269
-0.0263737
-0.0248418
-0.0233345
-0.0218552
-0.0204073
-0.0189945
-0.0176202
-0.0162881
-0.0150016
-0.0137642
-0.0125789
-0.0114487
-0.0103761
-0.00936338
-0.00841216
-0.00752369
-0.0066985
-0.00593676
-0.00523765
-0.00460036
-0.00402254
-0.00350282
-0.00303697
-0.00262419
-0.00225731
-0.00193853
-0.00165492
-0.00141699
-0.00119888
-0.0010312
-0.000858062
-0.000756719
-0.000601836
-0.000576776
-0.000398184
-0.000487496
-0.000207635
-0.000507385
3.05309e-05
-0.000696819
0.000427395
-0.00119947
-0.0391567
-0.0375322
-0.0359106
-0.0342941
-0.0326851
-0.0310859
-0.0294993
-0.027928
-0.0263749
-0.0248432
-0.0233361
-0.021857
-0.0204094
-0.0189968
-0.0176228
-0.0162909
-0.0150047
-0.0137675
-0.0125824
-0.0114524
-0.01038
-0.00936747
-0.0084164
-0.00752805
-0.00670294
-0.00594124
-0.00524214
-0.00460482
-0.00402693
-0.00350712
-0.00304113
-0.00262819
-0.00226112
-0.00194213
-0.0016583
-0.00142012
-0.00120178
-0.00103384
-0.000860494
-0.000758889
-0.00060383
-0.000578526
-0.000399792
-0.000488915
-0.000208893
-0.000508635
2.96792e-05
-0.000698286
0.000427375
-0.00120241
-0.0391565
-0.0375322
-0.0359108
-0.0342944
-0.0326855
-0.0310865
-0.0295
-0.0279288
-0.0263759
-0.0248444
-0.0233375
-0.0218586
-0.0204112
-0.0189988
-0.017625
-0.0162934
-0.0150074
-0.0137704
-0.0125855
-0.0114557
-0.0103835
-0.00937109
-0.00842014
-0.00753189
-0.00670685
-0.0059452
-0.00524611
-0.00460876
-0.00403082
-0.00351091
-0.00304481
-0.00263172
-0.00226449
-0.0019453
-0.00166129
-0.00142288
-0.00120435
-0.00103617
-0.000862648
-0.000760801
-0.000605601
-0.000580062
-0.000401231
-0.000490146
-0.000210041
-0.000509691
2.88551e-05
-0.000699491
0.000427226
-0.0012049
-0.0391563
-0.0375322
-0.0359109
-0.0342947
-0.0326859
-0.031087
-0.0295006
-0.0279296
-0.0263769
-0.0248455
-0.0233388
-0.02186
-0.0204128
-0.0190006
-0.017627
-0.0162955
-0.0150097
-0.0137729
-0.0125882
-0.0114585
-0.0103865
-0.00937421
-0.00842338
-0.00753521
-0.00671024
-0.00594862
-0.00524954
-0.00461217
-0.00403417
-0.00351419
-0.00304799
-0.00263477
-0.0022674
-0.00194805
-0.00166387
-0.00142527
-0.00120658
-0.00103819
-0.000864517
-0.000762452
-0.000607145
-0.000581379
-0.000402496
-0.000491186
-0.000211074
-0.000510552
2.80643e-05
-0.000700433
0.000426953
-0.00120693
-0.0391562
-0.0375321
-0.035911
-0.0342949
-0.0326862
-0.0310874
-0.0295012
-0.0279303
-0.0263776
-0.0248464
-0.0233398
-0.0218612
-0.0204141
-0.0190021
-0.0176286
-0.0162973
-0.0150116
-0.013775
-0.0125904
-0.0114609
-0.010389
-0.00937684
-0.0084261
-0.007538
-0.00671308
-0.00595149
-0.00525242
-0.00461503
-0.004037
-0.00351695
-0.00305067
-0.00263734
-0.00226986
-0.00195036
-0.00166605
-0.00142729
-0.00120845
-0.00103988
-0.000866095
-0.000763836
-0.000608453
-0.000582477
-0.000403579
-0.000492038
-0.00021198
-0.000511229
2.73282e-05
-0.000701135
0.000426591
-0.00120851
-0.0391561
-0.0375321
-0.0359111
-0.0342951
-0.0326865
-0.0310878
-0.0295016
-0.0279308
-0.0263782
-0.0248471
-0.0233406
-0.0218622
-0.0204152
-0.0190032
-0.0176299
-0.0162987
-0.0150132
-0.0137767
-0.0125922
-0.0114628
-0.010391
-0.00937895
-0.00842829
-0.00754026
-0.00671538
-0.00595381
-0.00525475
-0.00461734
-0.00403928
-0.00351918
-0.00305283
-0.00263942
-0.00227184
-0.00195223
-0.00166781
-0.00142891
-0.00120997
-0.00104125
-0.000867372
-0.000764953
-0.000609513
-0.000583361
-0.00040446
-0.000492719
-0.000212721
-0.000511763
2.67162e-05
-0.000701686
0.000426281
-0.00120974
-0.039156
-0.0375321
-0.0359111
-0.0342952
-0.0326867
-0.031088
-0.0295019
-0.0279312
-0.0263787
-0.0248476
-0.0233412
-0.0218629
-0.020416
-0.0190042
-0.0176309
-0.0162998
-0.0150144
-0.0137779
-0.0125936
-0.0114643
-0.0103926
-0.00938056
-0.00842995
-0.00754196
-0.00671712
-0.00595557
-0.00525651
-0.0046191
-0.00404101
-0.00352086
-0.00305447
-0.00264099
-0.00227334
-0.00195364
-0.00166914
-0.00143014
-0.00121112
-0.00104229