/*--------------------------------*- C++ -*----------------------------------*\
  =========                 |
  \\      /  F ield         | OpenFOAM: The Open Source CFD Toolbox
   \\    /   O peration     | Website:  https://openfoam.org
    \\  /    A nd           | Version:  7
     \\/     M anipulation  |
\*---------------------------------------------------------------------------*/
FoamFile
{
    version     2.0;
    format      ascii;
    class       surfaceScalarField;
    location    "10";
    object      phi;
}
// * * * * * * * * * * * * * * * * * * * * * * * * * * * * * * * * * * * * * //

dimensions      [0 3 -1 0 0 0 0];

internalField   nonuniform List<scalar> 
5147
(
0.00238713
-0.000658755
0.00237748
-0.000668991
0.0023678
-0.00067785
0.0023581
-0.000685122
0.0023484
-0.0006906
0.00233875
-0.000694074
0.00232916
-0.000695345
0.00231967
-0.000694228
0.00231032
-0.000690559
0.00230113
-0.000684201
0.00229214
-0.000675051
0.00228339
-0.000663051
0.0022749
-0.000648191
0.00226671
-0.000630514
0.00225886
-0.000610124
0.00225136
-0.000587183
0.00224424
-0.000561912
0.00223752
-0.000534589
0.00223121
-0.000505538
0.00222533
-0.000475129
0.00221989
-0.000443749
0.00221487
-0.000411824
0.00221029
-0.000379739
0.00220612
-0.000347936
0.00220236
-0.000316724
0.00219898
-0.000286544
0.00219598
-0.000257524
0.00219331
-0.000230161
0.00219098
-0.000204237
0.00218892
-0.000180505
0.00218715
-0.000158074
0.0021856
-0.000138459
0.00218429
-0.00011936
0.00218314
-0.000104209
0.0021822
-8.76491e-05
0.00218135
-7.75193e-05
-6.16576e-05
0.00253091
-0.000455123
0.00252302
-0.000468731
0.00251497
-0.000482659
0.00250676
-0.000496869
0.00249838
-0.000511312
0.00248985
-0.000525929
0.00248115
-0.000540648
0.0024723
-0.000555385
0.00246329
-0.000570042
0.00245413
-0.000584507
0.00244484
-0.000598653
0.00243541
-0.000612339
0.00242587
-0.000625411
0.00241623
-0.000637699
0.00240649
-0.000649023
0.0023967
-0.000659193
0.00238685
-0.000668006
0.00237699
-0.000675258
0.00236713
-0.000680741
0.00235731
-0.000684249
0.00234755
-0.000685586
0.00233788
-0.000684567
0.00232835
-0.000681029
0.00231899
-0.000674836
0.00230983
-0.000665887
0.0023009
-0.000654123
0.00229224
-0.000639533
0.00228389
-0.000622159
0.00227586
-0.000602103
0.0022682
-0.000579523
0.00226093
-0.000554637
0.00225406
-0.000527721
0.00224762
-0.000499092
0.0022416
-0.000469117
0.00223603
-0.000438176
0.0022309
-0.000406691
0.0022262
-0.000375043
0.00222193
-0.000343667
0.00221808
-0.000312869
0.00221462
-0.000283084
0.00221154
-0.000254441
0.0022088
-0.000227428
0.0022064
-0.000201834
0.00220429
-0.000178397
0.00220247
-0.000156249
0.00220087
-0.000136867
0.00219952
-0.000118009
0.00219834
-0.000103025
0.00219737
-8.66827e-05
0.00219649
-7.66397e-05
-6.09919e-05
0.00255197
-0.000447316
0.002544
-0.000460762
0.00253587
-0.000474526
0.00252757
-0.000488569
0.0025191
-0.000502844
0.00251047
-0.000517294
0.00250167
-0.000531847
0.0024927
-0.00054642
0.00248358
-0.000560918
0.0024743
-0.00057523
0.00246488
-0.00058923
0.00245532
-0.000602782
0.00244564
-0.00061573
0.00243585
-0.00062791
0.00242597
-0.000639143
0.00241602
-0.000649241
0.00240602
-0.000658005
0.00239599
-0.000665232
0.00238597
-0.000670716
0.00237597
-0.000674256
0.00236604
-0.000675655
0.00235621
-0.000674732
0.0023465
-0.000671324
0.00233696
-0.000665297
0.00232763
-0.000656549
0.00231852
-0.000645022
0.0023097
-0.000630704
0.00230117
-0.000613636
0.00229299
-0.000593917
0.00228517
-0.000571703
0.00227774
-0.000547208
0.00227072
-0.000520704
0.00226413
-0.000492504
0.00225799
-0.00046297
0.00225229
-0.000432477
0.00224703
-0.00040144
0.00224223
-0.000370236
0.00223786
-0.000339295
0.00223391
-0.000308919
0.00223036
-0.000279538
0.0022272
-0.00025128
0.0022244
-0.000224624
0.00222193
-0.000199368
0.00221977
-0.000176233
0.00221789
-0.000154373
0.00221625
-0.000135231
0.00221486
-0.00011662
0.00221365
-0.000101808
0.00221265
-8.5687e-05
0.00221175
-7.57349e-05
-6.03055e-05
0.00257312
-0.000439437
0.00256507
-0.000452717
0.00255686
-0.00046631
0.00254847
-0.000480182
0.00253991
-0.000494284
0.00253118
-0.00050856
0.00252227
-0.000522942
0.0025132
-0.000537346
0.00250396
-0.000551679
0.00249456
-0.000565832
0.00248502
-0.000579682
0.00247533
-0.000593093
0.00246551
-0.000605913
0.00245558
-0.000617979
0.00244555
-0.000629116
0.00243545
-0.000639137
0.00242529
-0.000647847
0.0024151
-0.000655045
0.00240491
-0.000660527
0.00239475
-0.000664095
0.00238465
-0.000665554
0.00237464
-0.000664724
0.00236476
-0.000661445
0.00235505
-0.000655583
0.00234554
-0.000647037
0.00233626
-0.000635748
0.00232726
-0.000621704
0.00231857
-0.000604945
0.00231022
-0.000585566
0.00230224
-0.000563723
0.00229466
-0.000539625
0.00228749
-0.000513539
0.00228076
-0.000485774
0.00227448
-0.000456688
0.00226865
-0.00042665
0.00226328
-0.000396069
0.00225836
-0.000365318
0.00225389
-0.000334821
0.00224984
-0.000304876
0.00224621
-0.000275906
0.00224297
-0.00024804
0.0022401
-0.000221749
0.00223757
-0.000196838
0.00223535
-0.000174011
0.00223342
-0.000152446
0.00223174
-0.000133551
0.00223031
-0.000115191
0.00222906
-0.000100556
0.00222803
-8.4662e-05
0.0022271
-7.48046e-05
-5.95982e-05
0.00259435
-0.000431487
0.00258623
-0.000444596
0.00257793
-0.000458015
0.00256946
-0.000471709
0.00256081
-0.000485633
0.00255198
-0.000499731
0.00254297
-0.000513935
0.00253379
-0.000528165
0.00252444
-0.000542328
0.00251492
-0.000556316
0.00250525
-0.00057001
0.00249543
-0.000583274
0.00248548
-0.000595961
0.00247541
-0.000607908
0.00246524
-0.000618943
0.00245498
-0.000628883
0.00244467
-0.000637534
0.00243432
-0.000644698
0.00242397
-0.000650175
0.00241364
-0.000653767
0.00240337
-0.000655283
0.00239319
-0.000654544
0.00238314
-0.000651392
0.00237325
-0.000645694
0.00236356
-0.00063735
0.00235412
-0.0006263
0.00234494
-0.000612532
0.00233608
-0.000596084
0.00232757
-0.00057705
0.00231943
-0.000555582
0.00231169
-0.000531885
0.00230437
-0.000506224
0.0022975
-0.000478902
0.00229108
-0.000450271
0.00228513
-0.000420695
0.00227964
-0.000390578
0.00227461
-0.000360289
0.00227003
-0.000330243
0.00226589
-0.000300737
0.00226217
-0.000272186
0.00225885
-0.000244721
0.00225591
-0.000218802
0.00225331
-0.000194244
0.00225103
-0.000171732
0.00224906
-0.000150469
0.00224733
-0.000131825
0.00224586
-0.000113724
0.00224458
-9.92698e-05
0.00224352
-8.36073e-05
0.00224257
-7.38486e-05
-5.88699e-05
0.00261566
-0.00042347
0.00260747
-0.000436401
0.00259909
-0.00044964
0.00259054
-0.000463152
0.0025818
-0.000476893
0.00257287
-0.000490808
0.00256377
-0.000504829
0.00255448
-0.000518879
0.00254502
-0.000532865
0.00253538
-0.000546684
0.00252559
-0.000560215
0.00251564
-0.000573327
0.00250556
-0.000585874
0.00249535
-0.000597698
0.00248503
-0.000608626
0.00247462
-0.000618479
0.00246416
-0.000627066
0.00245365
-0.000634192
0.00244314
-0.00063966
0.00243264
-0.000643273
0.0024222
-0.000644843
0.00241185
-0.000644193
0.00240162
-0.000641167
0.00239156
-0.000635632
0.0023817
-0.000627489
0.00237208
-0.00061668
0.00236274
-0.000603189
0.00235371
-0.000587055
0.00234503
-0.000568369
0.00233673
-0.00054728
0.00232883
-0.000523991
0.00232137
-0.00049876
0.00231435
-0.000471887
0.0023078
-0.000443718
0.00230172
-0.000414612
0.00229611
-0.000384968
0.00229097
-0.000355147
0.00228628
-0.000325561
0.00228205
-0.000296502
0.00227824
-0.000268379
0.00227484
-0.000241323
0.00227183
-0.000215784
0.00226917
-0.000191586
0.00226683
-0.000169396
0.0022648
-0.000148441
0.00226303
-0.000130055
0.00226153
-0.000112217
0.0022602
-9.79489e-05
0.00225912
-8.25227e-05
0.00225814
-7.28668e-05
-5.81203e-05
0.00263705
-0.000415385
0.00262879
-0.000428135
0.00262034
-0.000441189
0.0026117
-0.000454514
0.00260287
-0.000468066
0.00259385
-0.000481791
0.00258465
-0.000495625
0.00257526
-0.000509489
0.00256569
-0.000523293
0.00255594
-0.000536936
0.00254602
-0.000550299
0.00253595
-0.000563254
0.00252573
-0.000575656
0.00251538
-0.000587349
0.00250492
-0.000598166
0.00249437
-0.000607927
0.00248375
-0.000616445
0.00247309
-0.000623529
0.00246241
-0.000628983
0.00245175
-0.000632613
0.00244114
-0.000634234
0.00243062
-0.000633671
0.00242022
-0.000630769
0.00240999
-0.000625396
0.00239995
-0.000617455
0.00239016
-0.000606887
0.00238065
-0.000593676
0.00237145
-0.000577858
0.0023626
-0.000559524
0.00235414
-0.000538818
0.00234609
-0.000515941
0.00233848
-0.000491146
0.00233132
-0.000464728
0.00232463
-0.000437029
0.00231842
-0.000408401
0.00231269
-0.000379236
0.00230743
-0.000349893
0.00230265
-0.000320775
0.00229832
-0.000292172
0.00229442
-0.000264485
0.00229094
-0.000237845
0.00228785
-0.000212694
0.00228513
-0.000188862
0.00228274
-0.000167001
0.00228066
-0.000146362
0.00227884
-0.000128238
0.00227729
-0.00011067
0.00227594
-9.65931e-05
0.00227482
-8.14082e-05
0.00227382
-7.1859e-05
-5.73493e-05
0.00265852
-0.000407235
0.00265019
-0.000419798
0.00264166
-0.000432663
0.00263294
-0.000445795
0.00262403
-0.000459154
0.00261492
-0.000472684
0.00260562
-0.000486324
0.00259613
-0.000499996
0.00258645
-0.000513614
0.00257659
-0.000527075
0.00256656
-0.000540265
0.00255636
-0.000553056
0.00254601
-0.000565307
0.00253552
-0.000576865
0.00252492
-0.000587564
0.00251422
-0.000597228
0.00250345
-0.000605673
0.00249263
-0.000612709
0.00248179
-0.000618145
0.00247097
-0.000621789
0.00246019
-0.000623458
0.0024495
-0.000622979
0.00243893
-0.000620199
0.00242852
-0.000614988
0.00241832
-0.000607249
0.00240835
-0.000596921
0.00239867
-0.000583991
0.0023893
-0.000568492
0.00238029
-0.000550513
0.00237167
-0.000530195
0.00236346
-0.000507735
0.0023557
-0.000483382
0.0023484
-0.000457427
0.00234157
-0.000430203
0.00233523
-0.000402061
0.00232938
-0.000373384
0.00232401
-0.000344527
0.00231912
-0.000315884
0.0023147
-0.000287745
0.00231071
-0.000260502
0.00230715
-0.000234287
0.00230399
-0.000209531
0.0023012
-0.000186074
0.00229875
-0.000164549
0.00229662
-0.000144231
0.00229476
-0.000126377
0.00229317
-0.000109084
0.00229178
-9.52023e-05
0.00229064
-8.02635e-05
0.0022896
-7.08251e-05
-5.65567e-05
0.00268008
-0.000399022
0.00267167
-0.000411394
0.00266307
-0.000424064
0.00265428
-0.000436999
0.00264528
-0.000450157
0.00263608
-0.000463488
0.00262669
-0.000476928
0.0026171
-0.000490404
0.00260731
-0.000503828
0.00259734
-0.000517102
0.00258718
-0.000530112
0.00257686
-0.000542734
0.00256639
-0.000554829
0.00255577
-0.000566246
0.00254502
-0.000576822
0.00253418
-0.000586383
0.00252326
-0.00059475
0.00251228
-0.000601735
0.00250129
-0.000607148
0.0024903
-0.000610802
0.00247936
-0.000612516
0.00246849
-0.000612118
0.00245775
-0.000609458
0.00244717
-0.000604407
0.00243679
-0.000596869
0.00242666
-0.000586784
0.0024168
-0.000574136
0.00240727
-0.000558959
0.00239809
-0.000541337
0.00238931
-0.000521412
0.00238095
-0.000499374
0.00237303
-0.000475469
0.00236559
-0.000449981
0.00235863
-0.000423241
0.00235216
-0.000395592
0.00234618
-0.000367411
0.0023407
-0.000339047
0.00233571
-0.000310889
0.00233118
-0.000283222
0.00232711
-0.000256431
0.00232348
-0.000230649
0.00232024
-0.000206295
0.00231739
-0.000183221
0.00231487
-0.000162037
0.00231269
-0.000142048
0.00231078
-0.000124469
0.00230916
-0.000107458
0.00230773
-9.37763e-05
0.00230656
-7.90885e-05
0.0023055
-6.97649e-05
-5.57423e-05
0.00270171
-0.000390747
0.00269324
-0.000402923
0.00268457
-0.000415393
0.00267569
-0.000428125
0.00266662
-0.000441079
0.00265733
-0.000454204
0.00264784
-0.00046744
0.00263815
-0.000480713
0.00262826
-0.000493938
0.00261818
-0.000507019
0.00260791
-0.000519844
0.00259747
-0.000532291
0.00258686
-0.000544224
0.00257611
-0.000555494
0.00256523
-0.000565941
0.00255424
-0.000575395
0.00254317
-0.000583678
0.00253204
-0.000590606
0.00252088
-0.000595993
0.00250974
-0.000599653
0.00249863
-0.000601407
0.0024876
-0.000601089
0.00247669
-0.000598547
0.00246593
-0.000593655
0.00245538
-0.000586317
0.00244507
-0.000576475
0.00243505
-0.00056411
0.00242535
-0.000549257
0.00241601
-0.000531997
0.00240706
-0.000512467
0.00239854
-0.000490856
0.00239048
-0.000467405
0.00238289
-0.000442392
0.00237579
-0.000416143
0.00236919
-0.000388993
0.0023631
-0.000361316
0.00235751
-0.000333454
0.00235241
-0.000305789
0.00234779
-0.000278602
0.00234363
-0.000252271
0.00233991
-0.00022693
0.0023366
-0.000202987
0.00233368
-0.000180301
0.00233111
-0.000159468
0.00232888
-0.000139813
0.00232692
-0.000122515
0.00232525
-0.000105791
0.00232379
-9.23149e-05
0.00232259
-7.78829e-05
0.0023215
-6.86782e-05
-5.49061e-05
0.00272342
-0.000382412
0.00271488
-0.000394387
0.00270614
-0.000406652
0.0026972
-0.000419176
0.00268804
-0.00043192
0.00267867
-0.000444835
0.00266909
-0.00045786
0.0026593
-0.000470925
0.00264931
-0.000483945
0.00263912
-0.000496827
0.00262873
-0.000509462
0.00261817
-0.000521728
0.00260744
-0.000533493
0.00259655
-0.00054461
0.00258554
-0.000554923
0.00257441
-0.000564264
0.00256319
-0.000572458
0.0025519
-0.000579325
0.00254059
-0.00058468
0.00252928
-0.000588342
0.00251801
-0.000590135
0.00250681
-0.000589892
0.00249573
-0.000587466
0.00248481
-0.000582732
0.00247408
-0.000575594
0.0024636
-0.000565994
0.00245341
-0.000553915
0.00244354
-0.000539387
0.00243403
-0.000522492
0.00242493
-0.000503362
0.00241626
-0.000482183
0.00240804
-0.000459191
0.00240031
-0.000434659
0.00239307
-0.000408907
0.00238635
-0.000382266
0.00238013
-0.0003551
0.00237442
-0.000327747
0.00236922
-0.000300583
0.0023645
-0.000273885
0.00236025
-0.000248022
0.00235645
-0.00022313
0.00235307
-0.000199605
0.00235008
-0.000177316
0.00234746
-0.000156839
0.00234517
-0.000137527
0.00234317
-0.000120515
0.00234146
-0.000104083
0.00233996
-9.08181e-05
0.00233873
-7.66467e-05
0.00233762
-6.75651e-05
-5.40479e-05
0.00274521
-0.000374019
0.00273661
-0.000385788
0.0027278
-0.000397843
0.00271878
-0.000410154
0.00270954
-0.000422683
0.00270009
-0.000435382
0.00269042
-0.000448191
0.00268054
-0.000461041
0.00267045
-0.000473852
0.00266015
-0.000486529
0.00264965
-0.000498966
0.00263897
-0.000511046
0.00262811
-0.000522637
0.0026171
-0.000533596
0.00260595
-0.000543769
0.00259467
-0.000552991
0.00258331
-0.000561092
0.00257187
-0.000567892
0.00256041
-0.000573212
0.00254894
-0.000576872
0.0025375
-0.000578698
0.00252614
-0.000578529
0.00251489
-0.000576217
0.00250379
-0.000571639
0.0024929
-0.0005647
0.00248225
-0.000555343
0.00247188
-0.00054355
0.00246185
-0.00052935
0.00245218
-0.000512822
0.00244291
-0.000494096
0.00243408
-0.000473354
0.00242572
-0.000450826
0.00241784
-0.000426782
0.00241047
-0.000401534
0.00240361
-0.000375408
0.00239727
-0.000348762
0.00239145
-0.000321927
0.00238614
-0.000295272
0.00238133
-0.000269071
0.00237699
-0.000243684
0.00237311
-0.000219248
0.00236965
-0.00019615
0.0023666
-0.000174265
0.00236391
-0.000154152
0.00236157
-0.000135187
0.00235953
-0.000118469
0.00235778
-0.000102335
0.00235625
-8.92857e-05
0.00235498
-7.53797e-05
0.00235384
-6.64253e-05
-5.31675e-05
0.00276708
-0.000365569
0.00275842
-0.000377128
0.00274955
-0.000388968
0.00274045
-0.000401061
0.00273114
-0.000413369
0.0027216
-0.000425846
0.00271184
-0.000438434
0.00270187
-0.000451065
0.00269168
-0.000463659
0.00268127
-0.000476125
0.00267067
-0.00048836
0.00265987
-0.000500247
0.00264889
-0.000511658
0.00263775
-0.000522453
0.00262646
-0.00053248
0.00261504
-0.000541579
0.00260353
-0.00054958
0.00259195
-0.000556309
0.00258033
-0.000561588
0.0025687
-0.000565242
0.0025571
-0.000567099
0.00254557
-0.000567
0.00253415
-0.000564799
0.00252289
-0.000560376
0.00251182
-0.000553636
0.002501
-0.000544522
0.00249047
-0.000533016
0.00248027
-0.000519146
0.00247043
-0.000502988
0.00246101
-0.00048467
0.00245202
-0.00046437
0.00244351
-0.000442312
0.00243549
-0.000418762
0.00242798
-0.000394025
0.00242099
-0.000368421
0.00241453
-0.000342302
0.00240859
-0.000315993
0.00240318
-0.000289855
0.00239827
-0.000264159
0.00239384
-0.000239257
0.00238988
-0.000215286
0.00238635
-0.000192621
0.00238323
-0.000171148
0.00238048
-0.000151405
0.00237809
-0.000132795
0.002376
-0.000116376
0.00237421
-0.000100547
0.00237264
-8.77176e-05
0.00237134
-7.40817e-05
0.00237018
-6.52588e-05
-5.22649e-05
0.00278903
-0.000357065
0.00278031
-0.000368407
0.00277137
-0.000380027
0.00276221
-0.000391897
0.00275282
-0.00040398
0.0027432
-0.00041623
0.00273336
-0.00042859
0.00272329
-0.000440996
0.002713
-0.000453368
0.00270249
-0.000465619
0.00269177
-0.000477645
0.00268086
-0.000489333
0.00266976
-0.000500559
0.00265849
-0.000511183
0.00264707
-0.000521059
0.00263552
-0.000530028
0.00262386
-0.000537924
0.00261213
-0.000544577
0.00260035
-0.000549811
0.00258857
-0.000553454
0.00257681
-0.000555339
0.00256511
-0.000555306
0.00255353
-0.000553214
0.0025421
-0.000548944
0.00253086
-0.000542402
0.00251987
-0.000533532
0.00250917
-0.000522314
0.0024988
-0.000508775
0.0024888
-0.000492991
0.00247921
-0.000475084
0.00247007
-0.00045523
0.00246141
-0.000433647
0.00245325
-0.000410597
0.0024456
-0.000386378
0.00243848
-0.000361304
0.0024319
-0.00033572
0.00242585
-0.000309945
0.00242033
-0.000284333
0.00241532
-0.00025915
0.0024108
-0.000234741
0.00240676
-0.000211242
0.00240316
-0.000189018
0.00239997
-0.000167965
0.00239717
-0.000148599
0.00239472
-0.00013035
0.00239258
-0.000114237
0.00239075
-9.87169e-05
0.00238915
-8.61137e-05
0.00238782
-7.27528e-05
0.00238663
-6.40656e-05
-5.13399e-05
0.00281106
-0.000348506
0.00280228
-0.000359628
0.00279327
-0.000371023
0.00278404
-0.000382665
0.00277458
-0.000394517
0.00276488
-0.000406534
0.00275496
-0.000418662
0.0027448
-0.000430837
0.00273441
-0.000442982
0.0027238
-0.00045501
0.00271298
-0.000466821
0.00270195
-0.000478305
0.00269073
-0.000489339
0.00267933
-0.000499788
0.00266778
-0.000509506
0.00265609
-0.00051834
0.0026443
-0.000526126
0.00263242
-0.000532697
0.00262049
-0.000537882
0.00260854
-0.00054151
0.00259662
-0.000543418
0.00258476
-0.000543449
0.00257301
-0.000541464
0.00256141
-0.000537344
0.00255001
-0.000531
0.00253885
-0.000522372
0.00252798
-0.000511443
0.00251744
-0.000498238
0.00250728
-0.00048283
0.00249754
-0.000465339
0.00248824
-0.000445934
0.00247943
-0.000424833
0.00247112
-0.000402289
0.00246334
-0.000378594
0.00245609
-0.000354058
0.00244939
-0.000329016
0.00244322
-0.000303783
0.00243759
-0.000278704
0.00243249
-0.000254043
0.00242788
-0.000230134
0.00242376
-0.000207116
0.00242008
-0.000185342
0.00241683
-0.000164714
0.00241396
-0.000145733
0.00241147
-0.000127853
0.00240928
-0.00011205
0.00240741
-9.68462e-05
0.00240577
-8.4474e-05
0.00240441
-7.13927e-05
0.00240319
-6.28454e-05
-5.03925e-05
0.00283316
-0.000339895
0.00282433
-0.000350792
0.00281526
-0.000361958
0.00280596
-0.000373366
0.00279643
-0.000384981
0.00278665
-0.000396761
0.00277664
-0.000408651
0.0027664
-0.000420589
0.00275591
-0.000432501
0.00274521
-0.0004443
0.00273428
-0.000455892
0.00272314
-0.000467165
0.0027118
-0.000478001
0.00270028
-0.000488268
0.0026886
-0.000497824
0.00267677
-0.000506516
0.00266483
-0.000514187
0.00265281
-0.000520671
0.00264073
-0.000525801
0.00262863
-0.000529411
0.00261655
-0.000531337
0.00260453
-0.000531429
0.00259261
-0.000529547
0.00258084
-0.000525577
0.00256927
-0.000519429
0.00255794
-0.000511044
0.00254691
-0.000500405
0.0025362
-0.000487535
0.00252588
-0.000472505
0.00251597
-0.000455433
0.00250652
-0.000436484
0.00249756
-0.000415869
0.00248911
-0.000393837
0.00248119
-0.000370674
0.00247381
-0.000346682
0.00246699
-0.000322189
0.00246071
-0.000297506
0.00245497
-0.00027297
0.00244977
-0.000248838
0.00244507
-0.000225438
0.00244087
-0.000202909
0.00243712
-0.000181591
0.0024338
-0.000161398
0.00243087
-0.000142808
0.00242832
-0.000125302
0.00242609
-0.000109817
0.00242418
-9.49343e-05
0.0024225
-8.27983e-05
0.00242111
-7.00015e-05
0.00241986
-6.15984e-05
-4.94225e-05
0.00285535
-0.000331233
0.00284646
-0.0003419
0.00283733
-0.000352832
0.00282797
-0.000364001
0.00281836
-0.000375375
0.00280851
-0.000386912
0.00279842
-0.000398558
0.00278808
-0.000410254
0.00277751
-0.000421927
0.0027667
-0.000433492
0.00275567
-0.000444857
0.00274442
-0.000455914
0.00273296
-0.000466547
0.00272132
-0.000476626
0.00270951
-0.000486012
0.00269755
-0.000494558
0.00268547
-0.000502108
0.0026733
-0.0005085
0.00266107
-0.000513571
0.00264882
-0.000517157
0.00263658
-0.000519098
0.0026244
-0.000519247
0.00261232
-0.000517467
0.00260038
-0.000513645
0.00258864
-0.000507691
0.00257715
-0.000499549
0.00256594
-0.0004892
0.00255508
-0.000476668
0.00254459
-0.000462019
0.00253453
-0.000445369
0.00252492
-0.000426879
0.00251581
-0.000406756
0.00250721
-0.000385241
0.00249915
-0.000362616
0.00249165
-0.000339176
0.0024847
-0.000315241
0.00247831
-0.000291116
0.00247247
-0.000267129
0.00246717
-0.000243535
0.00246238
-0.000220653
0.00245809
-0.00019862
0.00245427
-0.000177766
0.00245088
-0.000158015
0.0024479
-0.000139823
0.0024453
-0.000122699
0.00244302
-0.000107537
0.00244106
-9.29812e-05
0.00243935
-8.10867e-05
0.00243793
-6.85789e-05
0.00243665
-6.03244e-05
-4.843e-05
0.00287761
-0.000322522
0.00286867
-0.000332955
0.00285948
-0.000343646
0.00285005
-0.000354572
0.00284038
-0.0003657
0.00283046
-0.000376988
0.00282028
-0.000388386
0.00280986
-0.000399833
0.0027992
-0.000411261
0.00278829
-0.000422587
0.00277715
-0.000433719
0.00276579
-0.000444554
0.00275422
-0.000454977
0.00274246
-0.000464862
0.00273052
-0.000474074
0.00271843
-0.000482468
0.00270621
-0.000489891
0.0026939
-0.000496186
0.00268152
-0.000501192
0.00266911
-0.000504749
0.00265672
-0.000506703
0.00264437
-0.000506905
0.00263213
-0.000505224
0.00262003
-0.000501546
0.00260813
-0.000495786
0.00259647
-0.000487887
0.00258509
-0.000477829
0.00257406
-0.000465635
0.00256341
-0.00045137
0.00255319
-0.000435146
0.00254343
-0.00041712
0.00253417
-0.000397493
0.00252543
-0.000376503
0.00251724
-0.000354422
0.0025096
-0.00033154
0.00250253
-0.000308171
0.00249603
-0.000284612
0.00249008
-0.000261183
0.00248468
-0.000238135
0.0024798
-0.000215778
0.00247543
-0.000194249
0.00247153
-0.000173868
0.00246808
-0.000154564
0.00246504
-0.000136778
0.00246238
-0.000120042
0.00246006
-0.000105211
0.00245806
-9.09868e-05
0.00245631
-7.93391e-05
0.00245486
-6.71251e-05
0.00245356
-5.90235e-05
-4.74147e-05
0.00289996
-0.000313762
0.00289096
-0.000323956
0.00288172
-0.000334403
0.00287223
-0.000345081
0.00286248
-0.000355956
0.00285249
-0.000366991
0.00284223
-0.000378134
0.00283173
-0.000389328
0.00282097
-0.000400505
0.00280997
-0.000411586
0.00279873
-0.00042248
0.00278726
-0.000433086
0.00277558
-0.000443293
0.0027637
-0.000452979
0.00275163
-0.00046201
0.00273941
-0.000470245
0.00272706
-0.000477536
0.0027146
-0.000483729
0.00270207
-0.000488666
0.00268951
-0.00049219
0.00267696
-0.000494151
0.00266446
-0.000494403
0.00265205
-0.000492818
0.00263979
-0.000489284
0.00262772
-0.000483716
0.00261589
-0.000476059
0.00260436
-0.000466293
0.00259316
-0.000454438
0.00258235
-0.000440559
0.00257197
-0.000424764
0.00256206
-0.000407206
0.00255264
-0.000388082
0.00254376
-0.000367621
0.00253543
-0.000346092
0.00252767
-0.000323776
0.00252048
-0.000300979
0.00251386
-0.000277993
0.00250781
-0.00025513
0.00250231
-0.000232637
0.00249734
-0.000210813
0.00249289
-0.000189796
0.00248892
-0.000169895
0.0024854
-0.000151048
0.0024823
-0.000133674
0.00247959
-0.000117332
0.00247721
-0.000102837
0.00247518
-8.89511e-05
0.00247339
-7.75555e-05
0.00247191
-6.56398e-05
0.00247058
-5.76956e-05
-4.63768e-05
0.00292238
-0.000304956
0.00291333
-0.000314905
0.00290403
-0.000325104
0.00289448
-0.000335528
0.00288467
-0.000346147
0.0028746
-0.000356921
0.00286427
-0.000367805
0.00285368
-0.00037874
0.00284284
-0.000389661
0.00283174
-0.00040049
0.0028204
-0.00041114
0.00280883
-0.000421512
0.00279703
-0.000431497
0.00278503
-0.000440977
0.00277284
-0.000449822
0.00276049
-0.000457893
0.002748
-0.000465046
0.0027354
-0.000471131
0.00272273
-0.000475993
0.00271002
-0.000479481
0.00269731
-0.000481444
0.00268465
-0.000481743
0.00267209
-0.000480251
0.00265966
-0.000476858
0.00264743
-0.000471481
0.00263543
-0.000464066
0.00262373
-0.000454592
0.00261237
-0.000443079
0.0026014
-0.000429588
0.00259086
-0.000414226
0.0025808
-0.00039714
0.00257124
-0.000378522
0.00256221
-0.000358597
0.00255374
-0.000337625
0.00254585
-0.000315882
0.00253854
-0.000293666
0.00253181
-0.000271261
0.00252565
-0.000248972
0.00252005
-0.000227041
0.002515
-0.000205758
0.00251046
-0.000185262
0.00250642
-0.000165849
0.00250283
-0.000147464
0.00249967
-0.00013051
0.00249691
-0.000114569
0.00249449
-0.000100416
0.00249241
-8.6874e-05
0.00249059
-7.57359e-05
0.00248907
-6.41232e-05
0.00248772
-5.63408e-05
-4.53161e-05
0.00294489
-0.000296103
0.00293579
-0.000305804
0.00292643
-0.000315749
0.00291682
-0.000325914
0.00290694
-0.000336271
0.0028968
-0.000346782
0.0028864
-0.0003574
0.00287573
-0.000368071
0.0028648
-0.000378729
0.00285361
-0.000389301
0.00284217
-0.0003997
0.00283049
-0.000409832
0.00281858
-0.00041959
0.00280646
-0.000428858
0.00279415
-0.00043751
0.00278167
-0.000445412
0.00276905
-0.000452422
0.00275631
-0.000458393
0.00274349
-0.000463176
0.00273063
-0.000466621
0.00271777
-0.000468584
0.00270495
-0.000468926
0.00269223
-0.000467523
0.00267964
-0.00046427
0.00266724
-0.000459083
0.00265508
-0.000451908
0.00264322
-0.000442727
0.0026317
-0.000431556
0.00262056
-0.000418456
0.00260987
-0.00040353
0.00259965
-0.00038692
0.00258994
-0.000368814
0.00258077
-0.000349431
0.00257217
-0.000329023
0.00256415
-0.00030786
0.00255672
-0.000286232
0.00254987
-0.000264416
0.00254361
-0.000242709
0.00253791
-0.000221348
0.00253277
-0.000200614
0.00252815
-0.000180646
0.00252403
-0.000161728
0.00252038
-0.000143814
0.00251716
-0.000127287
0.00251434
-0.000111753
0.00251188
-9.79489e-05
0.00250976
-8.47557e-05
0.0025079
-7.38805e-05
0.00250635
-6.25752e-05
0.00250497
-5.4959e-05
-4.42327e-05
0.00296747
-0.000287206
0.00295832
-0.000296653
0.00294891
-0.000306339
0.00293924
-0.000316242
0.0029293
-0.000326332
0.00291909
-0.000336573
0.00290861
-0.00034692
0.00289786
-0.000357321
0.00288684
-0.000367711
0.00287556
-0.00037802
0.00286403
-0.000388163
0.00285224
-0.000398049
0.00284023
-0.000407573
0.00282799
-0.000416624
0.00281556
-0.000425077
0.00280295
-0.000432803
0.00279019
-0.000439664
0.00277732
-0.000445517
0.00276436
-0.000450215
0.00275135
-0.000453614
0.00273834
-0.000455571
0.00272536
-0.000455953
0.00271248
-0.000454637
0.00269973
-0.00045152
0.00268716
-0.000446521
0.00267484
-0.000439588
0.00266282
-0.000430699
0.00265113
-0.000419872
0.00263984
-0.000407165
0.00262899
-0.000392677
0.00261862
-0.000376548
0.00260876
-0.000358959
0.00259945
-0.000340123
0.00259072
-0.000320286
0.00258257
-0.000299709
0.00257501
-0.000278676
0.00256805
-0.000257457
0.00256168
-0.00023634
0.00255589
-0.000215557
0.00255066
-0.000195381
0.00254596
-0.000175948
0.00254177
-0.000157534
0.00253805
-0.000140098
0.00253477
-0.000124004
0.0025319
-0.000108884
0.00252938
-9.54347e-05
0.00252722
-8.25961e-05
0.00252533
-7.19891e-05
0.00252375
-6.09957e-05
0.00252235
-5.35504e-05
-4.31264e-05
0.00299014
-0.000278264
0.00298094
-0.000287454
0.00297148
-0.000296877
0.00296175
-0.000306511
0.00295174
-0.000316329
0.00294147
-0.000326295
0.00293091
-0.000336366
0.00292008
-0.000346491
0.00290898
-0.000356609
0.00289761
-0.000366648
0.00288598
-0.00037653
0.00287409
-0.000386163
0.00286197
-0.000395448
0.00284962
-0.000404275
0.00283706
-0.000412524
0.00282433
-0.000420069
0.00281144
-0.000426775
0.00279843
-0.000432503
0.00278532
-0.000437112
0.00277217
-0.00044046
0.002759
-0.000442407
0.00274588
-0.000442824
0.00273283
-0.000441593
0.00271992
-0.00043861
0.0027072
-0.000433798
0.00269472
-0.000427104
0.00268253
-0.000418509
0.00267068
-0.000408027
0.00265923
-0.000395715
0.00264822
-0.000381669
0.0026377
-0.000366025
0.0026277
-0.000348957
0.00261825
-0.000330674
0.00260938
-0.000311413
0.0026011
-0.00029143
0.00259342
-0.000271
0.00258635
-0.000250386
0.00257988
-0.000229866
0.00257399
-0.000209669
0.00256867
-0.000190058
0.00256389
-0.00017117
0.00255962
-0.000153266
0.00255584
-0.000136315
0.00255249
-0.000120662
0.00254957
-0.000105962
0.00254701
-9.28738e-05
0.00254481
-8.03952e-05
0.00254288
-7.00619e-05
0.00254127
-5.9385e-05
0.00253984
-5.2115e-05
-4.19974e-05
0.00301289
-0.000269279
0.00300364
-0.000278207
0.00299413
-0.000287362
0.00298434
-0.000296723
0.00297427
-0.000306264
0.00296393
-0.00031595
0.0029533
-0.00032574
0.00294239
-0.000335584
0.00293121
-0.000345422
0.00291975
-0.000355187
0.00290802
-0.000364801
0.00289603
-0.000374176
0.0028838
-0.000383216
0.00287134
-0.000391813
0.00285866
-0.000399852
0.00284581
-0.000407209
0.00283279
-0.000413755
0.00281964
-0.000419354
0.00280639
-0.000423868
0.00279309
-0.000427159
0.00277978
-0.000429093
0.0027665
-0.000429543
0.00275329
-0.000428392
0.00274023
-0.000425542
0.00272734
-0.000420915
0.0027147
-0.00041446
0.00270235
-0.000406157
0.00269034
-0.000396022
0.00267873
-0.000384108
0.00266757
-0.000370506
0.0026569
-0.00035535
0.00264675
-0.000338809
0.00263716
-0.000321084
0.00262815
-0.000302406
0.00261974
-0.000283024
0.00261195
-0.000263204
0.00260476
-0.000243201
0.00259819
-0.000223288
0.0025922
-0.000203685
0.00258679
-0.000184647
0.00258193
-0.00016631
0.00257759
-0.000148924
0.00257374
-0.000132466
0.00257034
-0.000117261
0.00256736
-0.000102987
0.00256476
-9.02663e-05
0.00256251
-7.81532e-05
0.00256055
-6.80991e-05
0.00255891
-5.77429e-05
0.00255745
-5.06529e-05
-4.08457e-05
0.00303572
-0.000260252
0.00302642
-0.000268913
0.00301686
-0.000277795
0.00300701
-0.000286879
0.00299689
-0.000296138
0.00298648
-0.000305539
0.00297578
-0.000315042
0.00296479
-0.000324599
0.00295353
-0.000334153
0.00294198
-0.000343638
0.00293015
-0.000352978
0.00291807
-0.00036209
0.00290573
-0.000370877
0.00289315
-0.000379239
0.00288036
-0.000387061
0.00286738
-0.000394226
0.00285423
-0.000400606
0.00284095
-0.00040607
0.00282756
-0.000410484
0.00281412
-0.000413714
0.00280065
-0.00041563
0.00278722
-0.000416108
0.00277386
-0.000415035
0.00276064
-0.000412314
0.00274759
-0.000407871
0.00273479
-0.000401655
0.00272228
-0.000393646
0.00271011
-0.000383858
0.00269835
-0.000372343
0.00268703
-0.000359189
0.00267621
-0.000344526
0.00266591
-0.000328515
0.00265618
-0.000311354