/*--------------------------------*- C++ -*----------------------------------*\
  =========                 |
  \\      /  F ield         | OpenFOAM: The Open Source CFD Toolbox
   \\    /   O peration     | Website:  https://openfoam.org
    \\  /    A nd           | Version:  7
     \\/     M anipulation  |
\*---------------------------------------------------------------------------*/
FoamFile
{
    version     2.0;
    format      ascii;
    class       surfaceScalarField;
    location    "35";
    object      phi;
}
// * * * * * * * * * * * * * * * * * * * * * * * * * * * * * * * * * * * * * //

dimensions      [0 3 -1 0 0 0 0];

internalField   nonuniform List<scalar> 
5145
(
0.00237541
0.000450819
0.00237355
0.000446888
0.0023718
0.000442981
0.00237014
0.000439098
0.00236858
0.000435242
0.00236711
0.000431415
0.00236574
0.000427615
0.00236446
0.000423845
0.00236327
0.000420102
0.00236217
0.000416386
0.00236116
0.000412689
0.00236024
0.00040902
0.00235941
0.00040535
0.00235866
0.000401715
0.002358
0.000398032
0.00235742
0.000394423
0.00235692
0.000390643
0.00235651
0.000387078
0.00235617
0.00038301
0.00235591
0.000379624
0.00235572
0.000374794
0.00235563
0.000372088
0.0023556
0.000365253
0.00235567
0.00036484
0.00235582
0.000352675
0.00235606
0.00035931
0.000334085
0.00238317
0.000540548
0.00237868
0.000538584
0.00237432
0.000536382
0.0023701
0.000533958
0.00236602
0.000531329
0.00236207
0.000528511
0.00235824
0.000525519
0.00235455
0.000522368
0.00235098
0.000519072
0.00234753
0.000515647
0.0023442
0.000512105
0.00234099
0.000508461
0.00233789
0.000504726
0.00233491
0.000500912
0.00233204
0.000497031
0.00232929
0.000493094
0.00232664
0.00048911
0.0023241
0.00048509
0.00232167
0.000481042
0.00231934
0.000476974
0.00231712
0.000472895
0.002315
0.00046881
0.00231298
0.000464727
0.00231106
0.000460651
0.00230924
0.000456588
0.00230752
0.000452541
0.00230589
0.000448514
0.00230436
0.000444511
0.00230293
0.000440534
0.00230159
0.000436585
0.00230034
0.000432665
0.00229918
0.000428775
0.00229811
0.000424916
0.00229712
0.000421084
0.00229623
0.000417281
0.00229542
0.000413498
0.0022947
0.000409744
0.00229405
0.000405992
0.0022935
0.000402274
0.00229302
0.000398511
0.00229262
0.00039482
0.0022923
0.000390965
0.00229205
0.00038732
0.00229188
0.000383181
0.0022918
0.000379713
0.00229177
0.000374817
0.00229184
0.000372024
0.00229196
0.000365126
0.00229218
0.000364619
0.00229248
0.000352382
0.00229287
0.000358918
0.000333529
0.00231068
0.000544869
0.0023065
0.000542766
0.00230245
0.000540428
0.00229854
0.000537871
0.00229475
0.000535112
0.0022911
0.000532166
0.00228757
0.000529048
0.00228416
0.000525774
0.00228088
0.000522358
0.00227771
0.000518814
0.00227466
0.000515156
0.00227172
0.000511397
0.0022689
0.000507549
0.00226619
0.000503624
0.00226359
0.000499634
0.00226109
0.000495589
0.0022587
0.0004915
0.00225641
0.000487375
0.00225423
0.000483224
0.00225215
0.000479055
0.00225017
0.000474875
0.00224829
0.000470692
0.00224651
0.000466511
0.00224482
0.000462339
0.00224323
0.00045818
0.00224173
0.000454038
0.00224032
0.000449918
0.00223901
0.000445823
0.00223779
0.000441756
0.00223666
0.000437717
0.00223561
0.000433709
0.00223466
0.000429732
0.00223379
0.000425786
0.002233
0.00042187
0.0022323
0.000417983
0.00223168
0.000414118
0.00223114
0.000410283
0.00223068
0.000406451
0.0022303
0.000402654
0.00223
0.000398815
0.00222977
0.000395046
0.00222962
0.000391119
0.00222954
0.000387396
0.00222953
0.000383191
0.0022296
0.000379643
0.00222973
0.000374687
0.00222994
0.000371808
0.00223021
0.000364856
0.00223058
0.000364249
0.00223101
0.000351959
0.00223155
0.000358377
0.000332862
0.00224047
0.000548884
0.00223659
0.000546646
0.00223284
0.000544175
0.00222922
0.000541489
0.00222573
0.000538603
0.00222236
0.000535533
0.00221912
0.000532293
0.00221599
0.0005289
0.00221298
0.000525367
0.00221009
0.000521708
0.00220731
0.000517938
0.00220464
0.000514068
0.00220207
0.000510111
0.00219962
0.000506079
0.00219727
0.000501983
0.00219503
0.000497835
0.00219288
0.000493643
0.00219084
0.000489417
0.0021889
0.000485167
0.00218705
0.0004809
0.00218531
0.000476623
0.00218365
0.000472344
0.00218209
0.000468069
0.00218063
0.000463804
0.00217926
0.000459553
0.00217797
0.000455321
0.00217678
0.000451112
0.00217567
0.000446929
0.00217466
0.000442774
0.00217372
0.000438649
0.00217288
0.000434556
0.00217211
0.000430495
0.00217143
0.000426467
0.00217083
0.000422469
0.00217031
0.000418502
0.00216987
0.000414559
0.00216951
0.000410645
0.00216923
0.000406737
0.00216902
0.000402864
0.00216888
0.000398953
0.00216881
0.000395109
0.00216882
0.000391114
0.0021689
0.000387317
0.00216904
0.000383049
0.00216926
0.000379424
0.00216953
0.000374413
0.00216989
0.000371448
0.0021703
0.000364453
0.00217081
0.000363739
0.00217135
0.000351416
0.00217203
0.000357695
0.000332091
0.00217247
0.000552601
0.00216888
0.000550232
0.00216543
0.000547633
0.00216209
0.000544821
0.00215888
0.000541812
0.0021558
0.000538622
0.00215282
0.000535265
0.00214997
0.000531756
0.00214723
0.000528109
0.0021446
0.00052434
0.00214207
0.00052046
0.00213966
0.000516483
0.00213735
0.000512421
0.00213514
0.000508285
0.00213304
0.000504088
0.00213103
0.000499839
0.00212913
0.000495549
0.00212732
0.000491226
0.00212561
0.00048688
0.00212399
0.000482518
0.00212246
0.000478148
0.00212103
0.000473778
0.00211969
0.000469412
0.00211843
0.000465057
0.00211727
0.000460718
0.00211619
0.000456399
0.0021152
0.000452104
0.00211429
0.000447836
0.00211347
0.000443597
0.00211273
0.00043939
0.00211207
0.000435216
0.00211149
0.000431075
0.00211099
0.000426967
0.00211057
0.000422891
0.00211022
0.000418848
0.00210995
0.000414829
0.00210976
0.00041084
0.00210963
0.00040686
0.00210958
0.000402914
0.0021096
0.000398934
0.00210969
0.000395019
0.00210985
0.000390959
0.00211007
0.00038709
0.00211036
0.000382764
0.00211072
0.000379063
0.00211113
0.000374004
0.00211162
0.000370952
0.00211215
0.000363923
0.00211279
0.000363098
0.00211345
0.000350761
0.00211426
0.000356883
0.000331223
0.00210663
0.00055603
0.00210333
0.000553534
0.00210015
0.000550811
0.00209709
0.000547877
0.00209416
0.000544749
0.00209134
0.000541442
0.00208863
0.000537971
0.00208604
0.000534351
0.00208355
0.000530595
0.00208117
0.000526718
0.0020789
0.000522733
0.00207673
0.000518652
0.00207466
0.000514489
0.00207269
0.000510254
0.00207082
0.000505958
0.00206905
0.000501612
0.00206737
0.000497227
0.00206579
0.000492811
0.00206429
0.000488372
0.00206289
0.00048392
0.00206158
0.00047946
0.00206036
0.000475001
0.00205922
0.000470549
0.00205817
0.000466108
0.0020572
0.000461684
0.00205632
0.000457281
0.00205552
0.000452904
0.0020548
0.000448554
0.00205416
0.000444236
0.0020536
0.000439949
0.00205312
0.000435697
0.00205272
0.000431479
0.00205239
0.000427296
0.00205214
0.000423145
0.00205196
0.000419028
0.00205185
0.000414937
0.00205181
0.000410878
0.00205184
0.000406828
0.00205194
0.000402812
0.00205211
0.000398767
0.00205235
0.000394783
0.00205264
0.000390663
0.00205301
0.000386724
0.00205343
0.000382345
0.00205392
0.00037857
0.00205446
0.000373468
0.00205508
0.000370329
0.00205573
0.000363275
0.00205649
0.000362334
0.00205725
0.00035
0.00205819
0.000355947
0.000330267
0.00204289
0.000559182
0.00203986
0.000556562
0.00203695
0.000553718
0.00203416
0.000550667
0.00203149
0.000547425
0.00202893
0.000544005
0.00202647
0.000540424
0.00202413
0.000536695
0.00202189
0.000532834
0.00201976
0.000528853
0.00201772
0.000524767
0.00201579
0.000520586
0.00201395
0.000516325
0.00201221
0.000511993
0.00201057
0.000507603
0.00200901
0.000503165
0.00200755
0.000498688
0.00200618
0.000494181
0.0020049
0.000489654
0.00200371
0.000485114
0.0020026
0.000480569
0.00200157
0.000476025
0.00200063
0.000471489
0.00199978
0.000466966
0.001999
0.000462461
0.0019983
0.000457978
0.00199769
0.000453521
0.00199715
0.000449094
0.00199668
0.000444698
0.0019963
0.000440336
0.00199598
0.000436009
0.00199575
0.000431718
0.00199558
0.000427462
0.00199549
0.00042324
0.00199546
0.000419053
0.0019955
0.000414893
0.00199562
0.000410765
0.00199579
0.00040665
0.00199604
0.000402568
0.00199635
0.00039846
0.00199672
0.000394411
0.00199715
0.000390233
0.00199764
0.000386228
0.00199819
0.000381799
0.00199881
0.000377952
0.00199946
0.000372813
0.0020002
0.000369588
0.00200096
0.000362516
0.00200184
0.000361455
0.0020027
0.000349141
0.00200375
0.000354896
0.000329229
0.00198119
0.000562065
0.00197842
0.000559326
0.00197578
0.000556366
0.00197324
0.000553202
0.00197082
0.000549848
0.0019685
0.000546319
0.0019663
0.000542632
0.00196419
0.0005388
0.00196219
0.000534836
0.00196029
0.000530756
0.00195848
0.000526571
0.00195678
0.000522295
0.00195516
0.000517939
0.00195364
0.000513515
0.00195221
0.000509034
0.00195087
0.000504506
0.00194962
0.000499941
0.00194845
0.000495348
0.00194737
0.000490735
0.00194637
0.000486112
0.00194546
0.000481484
0.00194462
0.000476858
0.00194387
0.000472242
0.0019432
0.00046764
0.0019426
0.000463057
0.00194208
0.000458497
0.00194164
0.000453965
0.00194127
0.000449463
0.00194097
0.000444994
0.00194075
0.000440559
0.0019406
0.000436161
0.00194051
0.000431799
0.0019405
0.000427474
0.00194056
0.000423185
0.00194068
0.00041893
0.00194087
0.000414705
0.00194112
0.000410512
0.00194144
0.000406335
0.00194182
0.000402189
0.00194225
0.000398022
0.00194275
0.000393911
0.00194331
0.000389679
0.00194393
0.00038561
0.00194459
0.000381135
0.00194533
0.000377218
0.00194609
0.000372046
0.00194695
0.000368735
0.00194781
0.000361655
0.00194879
0.000360469
0.00194974
0.000348192
0.0019509
0.000353738
0.000328115
0.00192147
0.000564691
0.00191896
0.000561837
0.00191656
0.000558765
0.00191427
0.00055549
0.00191209
0.000552029
0.00191001
0.000548396
0.00190804
0.000544606
0.00190616
0.000540673
0.00190439
0.000536612
0.00190271
0.000532435
0.00190113
0.000528156
0.00189963
0.000523787
0.00189823
0.00051934
0.00189692
0.000514827
0.00189569
0.000510259
0.00189455
0.000505645
0.0018935
0.000500995
0.00189253
0.000496319
0.00189164
0.000491625
0.00189083
0.000486921
0.0018901
0.000482214
0.00188945
0.000477511
0.00188887
0.000472817
0.00188837
0.000468139
0.00188795
0.000463482
0.0018876
0.000458849
0.00188732
0.000454244
0.00188711
0.000449671
0.00188697
0.000445131
0.0018869
0.000440628
0.0018869
0.000436161
0.00188697
0.000431733
0.0018871
0.000427342
0.0018873
0.000422987
0.00188756
0.000418669
0.00188788
0.000414382
0.00188827
0.000410127
0.00188871
0.000405889
0.00188922
0.000401684
0.00188978
0.000397461
0.0018904
0.00039329
0.00189107
0.000389007
0.00189181
0.000384878
0.00189258
0.000380359
0.00189342
0.000376376
0.00189429
0.000371175
0.00189525
0.000367779
0.00189621
0.000360698
0.00189729
0.000359383
0.00189833
0.000347158
0.00189959
0.00035248
0.000326931
0.00186367
0.00056707
0.0018614
0.000564105
0.00185924
0.000560924
0.00185719
0.000557543
0.00185524
0.000553979
0.00185339
0.000550244
0.00185164
0.000546356
0.00184999
0.000542326
0.00184843
0.00053817
0.00184696
0.000533901
0.00184559
0.000529531
0.0018443
0.000525073
0.0018431
0.000520539
0.00184199
0.000515941
0.00184096
0.000511288
0.00184001
0.000506592
0.00183915
0.000501861
0.00183836
0.000497105
0.00183765
0.000492333
0.00183702
0.000487552
0.00183647
0.000482769
0.00183599
0.000477991
0.00183558
0.000473224
0.00183525
0.000468474
0.00183499
0.000463745
0.00183479
0.000459041
0.00183467
0.000454368
0.00183461
0.000449726
0.00183463
0.00044512
0.0018347
0.00044055
0.00183485
0.000436019
0.00183505
0.000431526
0.00183532
0.000427072
0.00183565
0.000422656
0.00183605
0.000418277
0.0018365
0.00041393
0.00183701
0.000409616
0.00183757
0.000405323
0.0018382
0.00040106
0.00183887
0.000396784
0.00183961
0.000392557
0.00184039
0.000388226
0.00184123
0.000384039
0.00184211
0.00037948
0.00184305
0.000375432
0.00184402
0.000370206
0.00184507
0.000366728
0.00184612
0.000359648
0.00184729
0.000358209
0.00184841
0.00034604
0.00184975
0.000351139
0.000325677
0.00273278
0.000561118
0.00273895
0.00055794
0.00274532
0.000554553
0.00275189
0.000550972
0.00275866
0.000547212
0.00276561
0.000543288
0.00277276
0.000539213
0.00278008
0.000535001
0.00278759
0.000530665
0.00279527
0.00052622
0.00280312
0.000521676
0.00281115
0.000517046
0.00281935
0.000512342
0.00282771
0.000507574
0.00283625
0.000502753
0.00284495
0.000497889
0.00285382
0.000492991
0.00286286
0.000488068
0.00287206
0.000483127
0.00288143
0.000478178
0.00289098
0.000473225
0.00290069
0.000468277
0.00291058
0.000463338
0.00292064
0.000458415
0.00293087
0.000453511
0.00294128
0.000448631
0.00295187
0.000443779
0.00296264
0.000438957
0.00297359
0.000434168
0.00298473
0.000429414
0.00299605
0.000424696
0.00300756
0.000420014
0.00301927
0.000415369
0.00303116
0.000410759
0.00304326
0.000406184
0.00305555
0.00040164
0.00306804
0.000397125
0.00308073
0.000392629
0.00309363
0.000388161
0.00310674
0.000383679
0.00312005
0.000379242
0.00313358
0.000374701
0.00314731
0.000370299
0.00316127
0.000365529
0.00317544
0.000361259
0.00318983
0.00035582
0.00320445
0.000352108
0.00321927
0.000344819
0.00323436
0.000343122
0.00324966
0.000330746
0.00326525
0.000335547
0.000309845
0.00273107
0.000555134
0.00273726
0.000551755
0.00274364
0.000548173
0.00275021
0.000544403
0.00275696
0.000540459
0.0027639
0.000536355
0.002771
0.000532105
0.00277828
0.000527721
0.00278573
0.000523218
0.00279334
0.000518608
0.00280112
0.000513902
0.00280905
0.000509112
0.00281714
0.000504249
0.00282539
0.000499324
0.0028338
0.000494347
0.00284236
0.000489327
0.00285108
0.000484273
0.00285996
0.000479195
0.00286898
0.000474099
0.00287817
0.000468993
0.00288751
0.000463884
0.00289701
0.000458779
0.00290666
0.000453682
0.00291648
0.000448598
0.00292646
0.000443534
0.0029366
0.000438491
0.0029469
0.000433475
0.00295737
0.000428487
0.00296801
0.00042353
0.00297882
0.000418606
0.00298979
0.000413716
0.00300095
0.000408861
0.00301228
0.00040404
0.00302378
0.000399253
0.00303547
0.000394498
0.00304734
0.000389772
0.00305939
0.000385074
0.00307162
0.000380392
0.00308405
0.000375736
0.00309666
0.000371065
0.00310947
0.000366436
0.00312247
0.000361702
0.00313566
0.000357105
0.00314905
0.000352139
0.00316264
0.000347669
0.00317643
0.000342031
0.00319043
0.000338114
0.00320462
0.000330621
0.00321904
0.00032871
0.00323367
0.000316115
0.00324853
0.000320687
0.000294712
0.0027275
0.000549071
0.00273376
0.000545503
0.00274019
0.000541737
0.0027468
0.00053779
0.00275359
0.000533673
0.00276054
0.000529402
0.00276766
0.000524988
0.00277493
0.000520446
0.00278237
0.000515787
0.00278995
0.000511023
0.00279769
0.000506166
0.00280557
0.000501228
0.0028136
0.000496218
0.00282178
0.000491148
0.0028301
0.000486027
0.00283856
0.000480864
0.00284717
0.000475668
0.00285591
0.000470447
0.0028648
0.000465208
0.00287384
0.00045996
0.00288301
0.000454708
0.00289234
0.000449458
0.0029018
0.000444216
0.00291141
0.000438987
0.00292117
0.000433775
0.00293108
0.000428584
0.00294113
0.000423418
0.00295134
0.000418279
0.0029617
0.000413169
0.00297222
0.000408091
0.00298289
0.000403045
0.00299372
0.000398031
0.00300471
0.00039305
0.00301586
0.000388101
0.00302718
0.000383183
0.00303866
0.000378291
0.00305031
0.000373426
0.00306212
0.000368575
0.00307411
0.000363748
0.00308627
0.000358905
0.0030986
0.000354102
0.00311111
0.000349193
0.0031238
0.000344419
0.00313666
0.000339275
0.00314971
0.000334625
0.00316293
0.000328808
0.00317634
0.000324704
0.00318993
0.000317029
0.00320372
0.000314918
0.0032177
0.000302138
0.00323191
0.000306483
0.000280271
0.00272202
0.00054288
0.00272839
0.000539134
0.00273493
0.000535198
0.00274164
0.000531085
0.0027485
0.000526808
0.00275552
0.000522381
0.00276269
0.000517816
0.00277001
0.000513127
0.00277747
0.000508324
0.00278508
0.000503419
0.00279282
0.000498424
0.0028007
0.000493349
0.00280871
0.000488206
0.00281686
0.000483003
0.00282513
0.000477751
0.00283354
0.000472458
0.00284207
0.000467132
0.00285074
0.000461781
0.00285953
0.000456414
0.00286846
0.000451036
0.00287751
0.000445654
0.00288669
0.000440274
0.00289601
0.000434902
0.00290545
0.000429541
0.00291503
0.000424196
0.00292475
0.000418872
0.00293459
0.00041357
0.00294458
0.000408295
0.0029547
0.000403047
0.00296496
0.00039783
0.00297536
0.000392642
0.00298591
0.000387487
0.0029966
0.000382362
0.00300743
0.000377267
0.00301841
0.000372201
0.00302954
0.00036716
0.00304082
0.000362145
0.00305226
0.000357142
0.00306384
0.000352162
0.00307558
0.000347164
0.00308748
0.000342205
0.00309953
0.000337139
0.00311175
0.000332206
0.00312412
0.000326903
0.00313665
0.00032209
0.00314935
0.000316114
0.00316221
0.000311841
0.00317523
0.000304009
0.00318844
0.000301712
0.0032018
0.000288779
0.00321538
0.000292899
0.000266491
0.00271467
0.000536508
0.00272121
0.000532598
0.0027279
0.000528504
0.00273475
0.000524238
0.00274174
0.000519814
0.00274888
0.000515245
0.00275615
0.000510542
0.00276356
0.000505718
0.0027711
0.000500783
0.00277877
0.000495751
0.00278656
0.00049063
0.00279448
0.000485433
0.00280252
0.000480169
0.00281067
0.000474846
0.00281895
0.000469476
0.00282734
0.000464066
0.00283585
0.000458624
0.00284447
0.000453158
0.00285321
0.000447675
0.00286207
0.000442181
0.00287104
0.000436684
0.00288012
0.000431188
0.00288932
0.000425699
0.00289864
0.000420221
0.00290808
0.000414759
0.00291764
0.000409315
0.00292732
0.000403894
0.00293711
0.000398497
0.00294703
0.000393127
0.00295708
0.000387786
0.00296725
0.000382473
0.00297754
0.000377191
0.00298797
0.000371938
0.00299852
0.000366714
0.0030092
0.000361518
0.00302002
0.000356345
0.00303097
0.000351196
0.00304205
0.000346058
0.00305327
0.000340942
0.00306463
0.000335806
0.00307612
0.000330709
0.00308776
0.000325504
0.00309953
0.00032043
0.00311145
0.000314987
0.00312351
0.00031003
0.00313571
0.000303915
0.00314806
0.00029949
0.00316054
0.000291526
0.0031732
0.000289057
0.00318597
0.000276004
0.00319897
0.000279902
0.000253341
0.00270553
0.000529907
0.00271228
0.000525846
0.00271917
0.000521607
0.00272621
0.000517203
0.00273338
0.000512645
0.00274068
0.000507947
0.0027481
0.000503119
0.00275564
0.000498173
0.00276331
0.000493121
0.00277108
0.000487974
0.00277897
0.000482742
0.00278697
0.000477435
0.00279508
0.000472063
0.00280329
0.000466635
0.0028116
0.00046116
0.00282002
0.000455647
0.00282854
0.000450103
0.00283716
0.000444535
0.00284589
0.000438951
0.00285471
0.000433357
0.00286364
0.000427758
0.00287267
0.000422161
0.00288179
0.00041657
0.00289103
0.00041099
0.00290036
0.000405424
0.0029098
0.000399877
0.00291934
0.000394351
0.00292899
0.000388849
0.00293874
0.000383372
0.00294861
0.000377923
0.00295858
0.000372502
0.00296866
0.000367109
0.00297885
0.000361745
0.00298916
0.000356408
0.00299958
0.000351097
0.00301012
0.000345809
0.00302077
0.000340544
0.00303154
0.000335288
0.00304243
0.000330054
0.00305343
0.000324799
0.00306456
0.000319581
0.00307581
0.000314255
0.00308718
0.000309057
0.00309868
0.000303494
0.0031103
0.00029841
0.00312204
0.000292178
0.00313391
0.000287618
0.00314589
0.000279545
0.00315803
0.000276918
0.00317025
0.000263778
0.0031827
0.000267457
0.00024079
0.00268778
0.00052704
0.00269466
0.000523028
0.00270168
0.000518831
0.00270882
0.000514462
0.00271609
0.000509933
0.00272348
0.000505255
0.00273099
0.000500441
0.00273861
0.000495502
0.00274633
0.000490449
0.00275416
0.000485294
0.00276209
0.000480046
0.00277011
0.000474716
0.00277823
0.000469313
0.00278645
0.000463848
0.00279475
0.000458329
0.00280315
0.000452764
0.00281164
0.000447162
0.00282021
0.00044153
0.00282887
0.000435875
0.00283762
0.000430204
0.00284645
0.000424523
0.00285537
0.000418839
0.00286437
0.000413155
0.00287347
0.000407478
0.00288265
0.000401811
0.00289191
0.000396158
0.00290127
0.000390522
0.00291071
0.000384907
0.00292025
0.000379315
0.00292987
0.000373748
0.00293959
0.000368207
0.0029494
0.000362692
0.0029593
0.000357206
0.0029693
0.000351747
0.00297939
0.000346314
0.00298958
0.000340906
0.00299987
0.00033552
0.00301026
0.000330155
0.00302075
0.000324799
0.00303134
0.000319464
0.00304203
0.000314107
0.00305283
0.000308786
0.00306372
0.000303357
0.00307473
0.000298055
0.00308583
0.00029239
0.00309704
0.000287198
0.00310835
0.000280868
0.00311978
0.00027619
0.00313129
0.000268033
0.00314295
0.000265263
0.00315466
0.000252068
0.00316658
0.000255533
0.000228808
0.00267496
0.000519965
0.00268217
0.000515826
0.00268949
0.000511508
0.00269693
0.000507023
0.00270448
0.000502383
0.00271213
0.0004976
0.00271989
0.000492685
0.00272774
0.000487649
0.00273569
0.000482504
0.00274372
0.000477259
0.00275184
0.000471925
0.00276005
0.000466511
0.00276833
0.000461028
0.0027767
0.000455484
0.00278514
0.000449888
0.00279366
0.000444248
0.00280225
0.000438571
0.00281091
0.000432866
0.00281964
0.000427139
0.00282845
0.000421397
0.00283733
0.000415645
0.00284628
0.000409889
0.0028553
0.000404135
0.00286439
0.000398386
0.00287355
0.000392648
0.00288279
0.000386923
0.0028921
0.000381215
0.00290148
0.000375527
0.00291093
0.000369861
0.00292046
0.000364219
0.00293006
0.000358603
0.00293974
0.000353012
0.0029495
0.000347448
0.00295934
0.000341911
0.00296925
0.000336399
0.00297925
0.000330911
0.00298932
0.000325444
0.00299948
0.000319997
0.00300972
0.000314558
0.00302005
0.000309139
0.00303045
0.000303698
0.00304095
0.000298292
0.00305153
0.000292779
0.00306219
0.00028739
0.00307294
0.000281643
0.00308378
0.00027636
0.00309469
0.000269954
0.0031057
0.000265176
0.00311678
0.000256958
0.00312798
0.000254059
0.00313921
0.000240842
0.00315064
0.000244098
0.000217365
0.00266055
0.000512508
0.00266812
0.000508256
0.0026758
0.000503831
0.00268357
0.000499246
0.00269145
0.000494511
0.00269941
0.000489637
0.00270746
0.000484636
0.00271559
0.000479519
0.0027238
0.000474296
0.00273208
0.000468976
0.00274043
0.000463571
0.00274885
0.000458089
0.00275734
0.00045254
0.00276589
0.000446932
0.00277451
0.000441274
0.00278318
0.000435574
0.00279191
0.000429839
0.0028007
0.000424076
0.00280955
0.000418292
0.00281845
0.000412494
0.00282741
0.000406686
0.00283643
0.000400875
0.0028455
0.000395065
0.00285462
0.000389261
0.0028638
0.000383467
0.00287304
0.000377686
0.00288233
0.000371922
0.00289168
0.000366177
0.00290109
0.000360454
0.00291055
0.000354754
0.00292008
0.000349079
0.00292966
0.000343429
0.0029393
0.000337804
0.00294901
0.000332206
0.00295878
0.000326631
0.00296861
0.00032108
0.0029785
0.000315549
0.00298846
0.000310038
0.00299849
0.000304534
0.00300858
0.000299049
0.00301873
0.000293542
0.00302896
0.000288069
0.00303925
0.00028249
0.0030496
0.000277032
0.00306003
0.000271221
0.00307052
0.000265866
0.00308107
0.000259403
0.0030917
0.000254543
0.00310237
0.000246288
0.00311316
0.000243276
0.00312393
0.000230068
0.00313491
0.00023312
0.000206432
0.00264465
0.000504624
0.00265263
0.000500276
0.0026607
0.000495761
0.00266885
0.00049109
0.00267709
0.000486276
0.0026854
0.000481327
0.00269378
0.000476256
0.00270223
0.000471072
0.00271073
0.000465787
0.0027193
0.000460408
0.00272793
0.000454947
0.0027366
0.000449412
0.00274533
0.000443813
0.00275411
0.000438157
0.00276293
0.000432452
0.00277179
0.000426707
0.0027807
0.000420929
0.00278966
0.000415124
0.00279865
0.000409299
0.00280768
0.00040346
0.00281676
0.000397613
0.00282587
0.000391762
0.00283502
0.000385913
0.00284421
0.00038007
0.00285344
0.000374236
0.00286271
0.000368416
0.00287202
0.000362612
0.00288138
0.000356827
0.00289077
0.000351063
0.0029002
0.000345321
0.00290968
0.000339603
0.00291919
0.000333911
0.00292875
0.000328243
0.00293836
0.0003226
0.00294801
0.00031698
0.00295771
0.000311384
0.00296745
0.000305806
0.00297724
0.000300248
0.00298708
0.000294697
0.00299696
0.000289163
0.0030069
0.000283608
0.00301688
0.000278085
0.00302691
0.000272459
0.003037
0.00026695
0.00304712
0.000261094
0.0030573
0.000255686
0.00306752
0.000249187
0.0030778
0.000244262
0.00308809
0.000235993
0.00309849
0.000232882
0.00310884
0.000219716
0.00311939
0.000222569
0.00019598
0.00262736
0.000496275
0.00263579
0.000491847
0.00264429
0.000487257
0.00265286
0.000482518
0.0026615
0.000477639
0.0026702
0.000472632
0.00267894
0.000467506
0.00268775
0.000462272
0.00269659
0.00045694
0.00270548
0.000451519
0.00271441
0.000446017
0.00272338
0.000440445
0.00273238
0.000434811
0.00274141
0.000429122
0.00275048
0.000423388
0.00275957
0.000417614
0.00276869
0.000411808
0.00277784
0.000405977
0.00278701
0.000400127
0.00279621
0.000394264
0.00280543
0.000388393
0.00281467
0.000382519
0.00282394
0.000376647
0.00283322
0.000370781
0.00284254
0.000364925
0.00285187
0.000359081
0.00286123
0.000353254
0.00287061
0.000347445
0.00288002
0.000341656
0.00288945
0.00033589
0.0028989
0.000330147
0.00290839
0.000324429
0.0029179
0.000318734
0.00292743
0.000313064
0.00293699
0.000307417
0.00294659
0.000301792
0.00295621
0.000296186
0.00296586
0.000290598
0.00297554
0.000285017
0.00298525
0.000279453
0.00299499
0.000273867
0.00300476
0.000268313
0.00301456
0.000262657
0.0030244
0.000257116
0.00303426
0.000251234
0.00304415
0.00024579
0.00305406
0.000239275
0.00306402
0.000234303
0.00307397
0.000226044
0.00308401
0.000222848
0.00309397
0.000209756
0.00310412
0.000212417
0.000185982
0.00260879
0.000487423
0.00261771
0.000482931
0.00262668
0.000478283
0.00263571
0.000473492
0.00264478
0.000468566
0.0026539
0.000463516
0.00266305
0.000458352
0.00267224
0.000453084
0.00268146
0.000447721
0.0026907
0.000442273
0.00269997
0.000436748
0.00270926
0.000431155
0.00271857
0.000425502
0.0027279
0.000419798
0.00273724
0.000414049
0.00274659
0.000408262
0.00275595
0.000402446
0.00276532
0.000396605
0.0027747
0.000390746
0.00278409
0.000384875
0.00279349
0.000378997
0.00280289
0.000373116
0.0028123
0.000367238
0.00282172
0.000361365
0.00283114
0.000355503
0.00284057
0.000349653
0.00285
0.000343819
0.00285944
0.000338003
0.00286889
0.000332207
0.00287835
0.000326433
0.00288781
0.000320682
0.00289729
0.000314955
0.00290677
0.000309251
0.00291626
0.000303571
0.00292577
0.000297914
0.00293528
0.000292278
0.00294481
0.00028666
0.00295435
0.00028106
0.0029639
0.000275466
0.00297346
0.00026989
0.00298303
0.000264292
0.00299262
0.000258724
0.00300222
0.000253057
0.00301184
0.000247502
0.00302146
0.000241613
0.0030311
0.000236151
0.00304073
0.00022964
0.0030504
0.000224638
0.00306003
0.000216413
0.00306973
0.000213148
0.00307933
0.00020016
0.00308911
0.000202635
0.000176411
0.00258907
0.000478033
0.00259851
0.000473494
0.00260799
0.000468806
0.0026175
0.000463979
0.00262704
0.000459022
0.00263661
0.000453947
0.0026462
0.000448761
0.00265581
0.000443476
0.00266543
0.000438099
0.00267507
0.000432641
0.0026847
0.000427109
0.00269435
0.000421511
0.00270399
0.000415857
0.00271364
0.000410152
0.00272328
0.000404405
0.00273292
0.000398623
0.00274256
0.000392812
0.00275218
0.000386978
0.0027618
0.000381127
0.00277141
0.000375265
0.00278101
0.000369396
0.0027906
0.000363526
0.00280018
0.000357657
0.00280975
0.000351795
0.00281931
0.000345943
0.00282886
0.000340104
0.0028384
0.00033428
0.00284793
0.000328475
0.00285745
0.000322689
0.00286695
0.000316924
0.00287645
0.000311182
0.00288595
0.000305463
0.00289543
0.000299768
0.00290491
0.000294095
0.00291438
0.000288444
0.00292384
0.000282815
0.0029333
0.000277203
0.00294275
0.000271608
0.00295219
0.00026602
0.00296164
0.000260449
0.00297107
0.000254856
0.0029805
0.000249293
0.00298993
0.000243633
0.00299935
0.000238081
0.00300876
0.000232203
0.00301817
0.000226742
0.00302755
0.000220255
0.00303695
0.000215241
0.00304629
0.000207072
0.00305568
0.000203752
0.00306494
0.000190901
0.00307438
0.000193196
0.000167241
0.00255836
0.000472488
0.00256832
0.000468074
0.00257831
0.000463506
0.00258832
0.000458794
0.00259835
0.000453949
0.00260839
0.000448979
0.00261845
0.000443894
0.0026285
0.000438705
0.00263856
0.000433419
0.00264861
0.000428045
0.00265866
0.000422593
0.0026687
0.000417071
0.00267872
0.000411486
0.00268874
0.000405846
0.00269873
0.000400159
0.0027087
0.000394431
0.00271866
0.00038867
0.00272859
0.000382881
0.00273849
0.000377071
0.00274838
0.000371245
0.00275823
0.000365408
0.00276807
0.000359566
0.00277787
0.000353722
0.00278765
0.000347881
0.00279739
0.000342046
0.00280712
0.000336222
0.00281681
0.00033041
0.00282648
0.000324614
0.00283612
0.000318835
0.00284573
0.000313076
0.00285532
0.000307338
0.00286488
0.000301622
0.00287441
0.000295929
0.00288392
0.000290259
0.0028934
0.000284611
0.00290286
0.000278984
0.0029123
0.000273379
0.00292171
0.00026779
0.0029311
0.000262219
0.00294047
0.000256654
0.00294981
0.000251104
0.00295913
0.000245535
0.00296843
0.000239994
0.00297771
0.000234359
0.00298696
0.000228829
0.00299618
0.000222981
0.00300539
0.000217538
0.00301455
0.000211095
0.0030237
0.000206086
0.00303278
0.000197995
0.00304189
0.000194637
0.00305084
0.000181952
0.00305996
0.000184076
0.000158447
0.00253611
0.00046195
0.00254666
0.000457518
0.00255723
0.000452939
0.0025678
0.000448221
0.00257838
0.000443374
0.00258895
0.000438408
0.00259951
0.000433333
0.00261006
0.000428156
0.00262059
0.000422886
0.0026311
0.000417533
0.00264159
0.000412105
0.00265205
0.000406609
0.00266249
0.000401053
0.00267289
0.000395446
0.00268325
0.000389793
0.00269358
0.000384101
0.00270388
0.000378378
0.00271413
0.000372628
0.00272434
0.000366859
0.00273451
0.000361074
0.00274464
0.00035528
0.00275472
0.000349481
0.00276476
0.000343681
0.00277476
0.000337884
0.00278471
0.000332094
0.00279462
0.000326315
0.00280448
0.000320547
0.0028143
0.000314796
0.00282407
0.000309061
0.0028338
0.000303347
0.00284349
0.000297652
0.00285313
0.00029198
0.00286273
0.000286329
0.00287229
0.000280701
0.0028818
0.000275096
0.00289128
0.000269511
0.00290071
0.000263946
0.0029101
0.000258399
0.00291945
0.000252868
0.00292876
0.000247343
0.00293803
0.000241834
0.00294726
0.000236305
0.00295645
0.000230805
0.0029656
0.000225212
0.0029747
0.000219722
0.00298376
0.000213922
0.00299278
0.000208515
0.00300174
0.000202135
0.00301068
0.000197149
0.00301952
0.000189158
0.00302838
0.000185776
0.00303704
0.000173289
0.00304587
0.000175247
0.000150003
0.00251306
0.000450774
0.00252424
0.000446343
0.00253541
0.000441769
0.00254657
0.000437062
0.00255771
0.000432232
0.00256883
0.000427288
0.00257993
0.000422238
0.00259099
0.000417091
0.00260202
0.000411856
0.00261301
0.00040654
0.00262397
0.000401153
0.00263487
0.000395701