/*--------------------------------*- C++ -*----------------------------------*\
  =========                 |
  \\      /  F ield         | OpenFOAM: The Open Source CFD Toolbox
   \\    /   O peration     | Website:  https://openfoam.org
    \\  /    A nd           | Version:  7
     \\/     M anipulation  |
\*---------------------------------------------------------------------------*/
FoamFile
{
    version     2.0;
    format      ascii;
    class       surfaceScalarField;
    location    "15";
    object      phi;
}
// * * * * * * * * * * * * * * * * * * * * * * * * * * * * * * * * * * * * * //

dimensions      [0 3 -1 0 0 0 0];

internalField   nonuniform List<scalar> 
5145
(
0.00122301
-2.04677e-05
0.00124333
-2.03197e-05
0.00126349
-2.01628e-05
0.00128349
-1.99974e-05
0.00130331
-1.9824e-05
0.00132295
-1.96432e-05
0.00134241
-1.94553e-05
0.00136167
-1.92609e-05
0.00138073
-1.90604e-05
0.00139959
-1.88543e-05
0.00141823
-1.86428e-05
0.00143666
-1.84266e-05
0.00145486
-1.82058e-05
0.00147284
-1.7981e-05
0.0014906
-1.77526e-05
0.00150812
-1.75208e-05
0.0015254
-1.72861e-05
0.00154245
-1.70488e-05
0.00155926
-1.68094e-05
0.00157583
-1.65681e-05
0.00159216
-1.63254e-05
0.00160824
-1.60815e-05
0.00162408
-1.58369e-05
0.00163967
-1.55919e-05
0.00165502
-1.5347e-05
0.00167012
-1.51023e-05
-2.21607e-10
0.00168498
-1.48584e-05
-2.77872e-10
0.00169959
-1.46155e-05
-3.19904e-10
0.00171397
-1.43742e-05
-3.60584e-10
0.0017281
-1.41348e-05
-3.99711e-10
0.001742
-1.38976e-05
-4.38528e-10
0.00175566
-1.36632e-05
-4.77153e-10
0.0017691
-1.3432e-05
-5.15244e-10
0.0017823
-1.32044e-05
-5.52477e-10
0.00179528
-1.29808e-05
-5.88239e-10
0.00180804
-1.27618e-05
-6.22258e-10
0.00182059
-1.25478e-05
-6.53956e-10
0.00183293
-1.23392e-05
-6.83208e-10
0.00184507
-1.21366e-05
-7.09576e-10
0.00185701
-1.19406e-05
-7.32669e-10
0.00186876
-1.17513e-05
-7.52257e-10
0.00188033
-1.15698e-05
-7.67529e-10
0.00189173
-1.13956e-05
-7.7808e-10
0.00190296
-1.12306e-05
-7.83135e-10
0.00191404
-1.10724e-05
-7.81839e-10
0.00192496
-1.09265e-05
-7.74846e-10
0.00193575
-1.0783e-05
-7.6096e-10
0.00194641
-1.06605e-05
-7.4077e-10
0.00195693
-1.05234e-05
-7.15083e-10
0.00196737
-1.04364e-05
-6.88242e-10
0.00197765
-1.02756e-05
-6.59317e-10
0.00198791
-1.02615e-05
-6.48883e-10
0.00199788
-9.97397e-06
-6.45007e-10
0.00200801
-1.01265e-05
-7.2916e-10
-9.2763e-06
-7.76446e-10
0.00122426
-4.09005e-05
0.00124455
-4.06051e-05
0.00126468
-4.02918e-05
0.00128464
-3.99617e-05
0.00130443
-3.96156e-05
0.00132405
-3.92547e-05
0.00134347
-3.88797e-05
0.0013627
-3.84917e-05
0.00138173
-3.80914e-05
0.00140056
-3.76798e-05
0.00141917
-3.72577e-05
0.00143757
-3.68259e-05
0.00145575
-3.63852e-05
0.00147371
-3.59364e-05
0.00149143
-3.54802e-05
0.00150893
-3.50174e-05
0.00152619
-3.45488e-05
0.00154322
-3.4075e-05
0.00156001
-3.35969e-05
0.00157655
-3.31151e-05
0.00159286
-3.26303e-05
0.00160892
-3.21433e-05
0.00162474
-3.16549e-05
0.00164031
-3.11657e-05
0.00165564
-3.06765e-05
0.00167073
-3.01879e-05
0.00168557
-2.97007e-05
0.00170017
-2.92158e-05
0.00171453
-2.87339e-05
0.00172865
-2.82558e-05
0.00174254
-2.77823e-05
0.00175619
-2.73143e-05
0.00176961
-2.68526e-05
0.0017828
-2.63981e-05
0.00179577
-2.59517e-05
0.00180853
-2.55144e-05
0.00182106
-2.50871e-05
0.0018334
-2.46707e-05
0.00184553
-2.42662e-05
0.00185746
-2.38748e-05
0.00186921
-2.3497e-05
0.00188077
-2.31346e-05
0.00189216
-2.27869e-05
0.00190339
-2.24575e-05
0.00191446
-2.21419e-05
0.00192538
-2.18507e-05
0.00193616
-2.15644e-05
0.00194682
-2.13201e-05
0.00195735
-2.10465e-05
0.00196778
-2.08732e-05
0.00197806
-2.05523e-05
0.00198832
-2.05248e-05
0.0019983
-1.99507e-05
0.00200843
-2.02566e-05
-1.85584e-05
0.00122678
-6.1263e-05
0.00124699
-6.08215e-05
0.00126706
-6.03532e-05
0.00128695
-5.98596e-05
0.00130668
-5.93423e-05
0.00132623
-5.88026e-05
0.00134559
-5.8242e-05
0.00136476
-5.76617e-05
0.00138373
-5.70631e-05
0.0014025
-5.64476e-05
0.00142106
-5.58163e-05
0.0014394
-5.51704e-05
0.00145753
-5.45112e-05
0.00147543
-5.38398e-05
0.00149311
-5.31574e-05
0.00151056
-5.24652e-05
0.00152777
-5.17641e-05
0.00154475
-5.10553e-05
0.0015615
-5.034e-05
0.001578
-4.96192e-05
0.00159426
-4.88939e-05
0.00161029
-4.81653e-05
0.00162607
-4.74345e-05
0.0016416
-4.67025e-05
0.0016569
-4.59705e-05
0.00167195
-4.52395e-05
0.00168676
-4.45106e-05
0.00170133
-4.37851e-05
0.00171566
-4.30641e-05
0.00172975
-4.23487e-05
0.00174361
-4.16403e-05
0.00175723
-4.09401e-05
0.00177063
-4.02493e-05
0.0017838
-3.95694e-05
0.00179675
-3.89016e-05
0.00180949
-3.82473e-05
0.00182201
-3.76081e-05
0.00183432
-3.69853e-05
0.00184643
-3.63803e-05
0.00185836
-3.57949e-05
0.00187009
-3.52299e-05
0.00188164
-3.46879e-05
0.00189302
-3.41681e-05
0.00190424
-3.36758e-05
0.0019153
-3.3204e-05
0.00192622
-3.27688e-05
0.001937
-3.2341e-05
0.00194765
-3.19762e-05
0.00195817
-3.15675e-05
0.00196861
-3.13094e-05
0.00197889
-3.08298e-05
0.00198915
-3.07903e-05
0.00199913
-2.99317e-05
0.00200927
-3.03923e-05
-2.78503e-05
0.00123053
-8.15205e-05
0.00125065
-8.09348e-05
0.00127061
-8.03135e-05
0.00129041
-7.96585e-05
0.00131004
-7.89719e-05
0.00132949
-7.82556e-05
0.00134876
-7.75113e-05
0.00136784
-7.6741e-05
0.00138672
-7.59463e-05
0.0014054
-7.5129e-05
0.00142388
-7.42907e-05
0.00144214
-7.3433e-05
0.00146019
-7.25576e-05
0.00147801
-7.16659e-05
0.00149561
-7.07595e-05
0.00151299
-6.984e-05
0.00153013
-6.89087e-05
0.00154705
-6.79672e-05
0.00156372
-6.7017e-05
0.00158016
-6.60593e-05
0.00159636
-6.50958e-05
0.00161233
-6.41279e-05
0.00162805
-6.31569e-05
0.00164353
-6.21844e-05
0.00165877
-6.12117e-05
0.00167377
-6.02405e-05
0.00168853
-5.92721e-05
0.00170306
-5.83081e-05
0.00171734
-5.73501e-05
0.00173139
-5.63997e-05
0.00174521
-5.54585e-05
0.0017588
-5.45282e-05
0.00177216
-5.36105e-05
0.0017853
-5.27072e-05
0.00179822
-5.18201e-05
0.00181092
-5.0951e-05
0.00182342
-5.01019e-05
0.00183571
-4.92747e-05
0.0018478
-4.84713e-05
0.0018597
-4.76939e-05
0.00187141
-4.69438e-05
0.00188295
-4.62242e-05
0.00189431
-4.55343e-05
0.00190552
-4.48809e-05
0.00191657
-4.4255e-05
0.00192748
-4.36778e-05
0.00193825
-4.31106e-05
0.0019489
-4.26274e-05
0.00195942
-4.20856e-05
0.00196985
-4.17446e-05
0.00198013
-4.11086e-05
0.0019904
-4.10593e-05
0.00200039
-3.99191e-05
0.00201053
-4.05365e-05
-3.71571e-05
0.00123551
-0.000101639
0.00125549
-0.000100912
0.00127532
-0.00010014
0.00129498
-9.93261e-05
0.00131448
-9.84729e-05
0.00133381
-9.75827e-05
0.00135296
-9.66577e-05
0.00137192
-9.57001e-05
0.00139068
-9.47122e-05
0.00140925
-9.3696e-05
0.00142761
-9.26537e-05
0.00144577
-9.15871e-05
0.00146371
-9.04984e-05
0.00148143
-8.93894e-05
0.00149893
-8.82621e-05
0.00151621
-8.71182e-05
0.00153326
-8.59598e-05
0.00155008
-8.47885e-05
0.00156667
-8.36063e-05
0.00158303
-8.24149e-05
0.00159915
-8.12161e-05
0.00161503
-8.00117e-05
0.00163068
-7.88035e-05
0.00164609
-7.75934e-05
0.00166126
-7.63831e-05
0.00167619
-7.51745e-05
0.00169089
-7.39695e-05
0.00170535
-7.27699e-05
0.00171958
-7.15779e-05
0.00173358
-7.03952e-05
0.00174734
-6.92241e-05
0.00176088
-6.80665e-05
0.00177419
-6.69247e-05
0.00178729
-6.58008e-05
0.00180017
-6.46971e-05
0.00181283
-6.3616e-05
0.00182529
-6.25598e-05
0.00183754
-6.1531e-05
0.0018496
-6.05318e-05
0.00186148
-5.95652e-05
0.00187316
-5.86326e-05
0.00188468
-5.77382e-05
0.00189603
-5.68808e-05
0.00190721
-5.60691e-05
0.00191825
-5.52917e-05
0.00192915
-5.45752e-05
0.00193991
-5.38711e-05
0.00195055
-5.32722e-05
0.00196107
-5.26e-05
0.0019715
-5.21789e-05
0.00198178
-5.13894e-05
0.00199206
-5.1333e-05
0.00200205
-4.99153e-05
0.00201221
-5.06923e-05
-4.64839e-05
0.00124169
-0.000121585
0.00126149
-0.000120719
0.00128115
-0.0001198
0.00130066
-0.000118831
0.00132
-0.000117814
0.00133917
-0.000116754
0.00135817
-0.000115652
0.00137698
-0.00011451
0.0013956
-0.000113333
0.00141402
-0.000112121
0.00143225
-0.000110879
0.00145027
-0.000109607
0.00146808
-0.000108308
0.00148567
-0.000106986
0.00150305
-0.000105641
0.00152021
-0.000104277
0.00153715
-0.000102895
0.00155385
-0.000101498
0.00157034
-0.000100087
0.00158659
-9.86656e-05
0.00160261
-9.72352e-05
0.00161839
-9.5798e-05
0.00163394
-9.43563e-05
0.00164926
-9.29122e-05
0.00166435
-9.14679e-05
0.0016792
-9.00256e-05
0.00169382
-8.85876e-05
0.0017082
-8.71561e-05
0.00172236
-8.57335e-05
0.00173629
-8.43222e-05
0.00174999
-8.29246e-05
0.00176346
-8.15433e-05
0.00177672
-8.01809e-05
0.00178976
-7.88399e-05
0.00180258
-7.75231e-05
0.0018152
-7.62334e-05
0.00182762
-7.49735e-05
0.00183983
-7.37464e-05
0.00185185
-7.25549e-05
0.00186369
-7.14023e-05
0.00187535
-7.02907e-05
0.00188684
-6.92248e-05
0.00189816
-6.82032e-05
0.00190933
-6.72365e-05
0.00192035
-6.63109e-05
0.00193123
-6.54584e-05
0.00194198
-6.46208e-05
0.00195262
-6.39094e-05
0.00196313
-6.31102e-05
0.00197356
-6.26125e-05
0.00198384
-6.16731e-05
0.00199412
-6.16132e-05
0.00200413
-5.99228e-05
0.0020143
-6.08629e-05
-5.58359e-05
0.00124903
-0.000141326
0.00126863
-0.000140325
0.00128809
-0.000139262
0.0013074
-0.000138142
0.00132656
-0.000136966
0.00134554
-0.00013574
0.00136436
-0.000134464
0.00138299
-0.000133144
0.00140144
-0.000131781
0.00141969
-0.000130378
0.00143775
-0.000128939
0.00145561
-0.000127467
0.00147327
-0.000125963
0.00149071
-0.000124432
0.00150795
-0.000122874
0.00152496
-0.000121294
0.00154176
-0.000119693
0.00155834
-0.000118074
0.00157469
-0.000116439
0.00159082
-0.000114792
0.00160672
-0.000113134
0.00162239
-0.000111469
0.00163783
-0.000109798
0.00165304
-0.000108124
0.00166802
-0.00010645
0.00168278
-0.000104779
0.0016973
-0.000103112
0.0017116
-0.000101453
0.00172567
-9.98038e-05
0.00173951
-9.8168e-05
0.00175314
-9.65483e-05
0.00176654
-9.49474e-05
0.00177973
-9.33685e-05
0.0017927
-9.18146e-05
0.00180547
-9.02888e-05
0.00181803
-8.87946e-05
0.00183039
-8.73351e-05
0.00184256
-8.59138e-05
0.00185454
-8.45339e-05
0.00186633
-8.31995e-05
0.00187796
-8.19127e-05
0.00188941
-8.06792e-05
0.0019007
-7.94975e-05
0.00191185
-7.83797e-05
0.00192285
-7.73098e-05
0.00193371
-7.63253e-05
0.00194445
-7.53581e-05
0.00195508
-7.45383e-05
0.00196559
-7.36161e-05
0.00197602
-7.30457e-05
0.00198631
-7.19608e-05
0.0019966
-7.19015e-05
0.00200662
-6.99443e-05
0.00201681
-7.10516e-05
-6.52186e-05
0.00125749
-0.00016083
0.00127686
-0.000159699
0.0012961
-0.000158497
0.00131519
-0.00015723
0.00133412
-0.0001559
0.00135289
-0.000154512
0.00137149
-0.000153068
0.00138992
-0.000151573
0.00140817
-0.000150029
0.00142624
-0.000148441
0.00144411
-0.000146811
0.00146178
-0.000145143
0.00147926
-0.00014344
0.00149653
-0.000141704
0.0015136
-0.000139938
0.00153045
-0.000138147
0.00154709
-0.000136332
0.00156351
-0.000134496
0.00157972
-0.000132643
0.0015957
-0.000130775
0.00161146
-0.000128896
0.001627
-0.000127007
0.00164231
-0.000125112
0.0016574
-0.000123213
0.00167227
-0.000121315
0.00168691
-0.000119419
0.00170132
-0.000117528
0.00171552
-0.000115646
0.00172949
-0.000113776
0.00174324
-0.000111921
0.00175678
-0.000110084
0.0017701
-0.000108268
0.00178321
-0.000106478
0.00179611
-0.000104715
0.0018088
-0.000102986
0.0018213
-0.000101291
0.0018336
-9.96371e-05
0.00184571
-9.80263e-05
0.00185764
-9.64628e-05
0.0018694
-9.49511e-05
0.00188098
-9.34938e-05
0.00189239
-9.20974e-05
0.00190366
-9.076e-05
0.00191477
-8.94957e-05
0.00192575
-8.82861e-05
0.0019366
-8.71742e-05
0.00194732
-8.60819e-05
0.00195794
-8.51582e-05
0.00196844
-8.41177e-05
0.00197888
-8.34795e-05
0.00198917
-8.22541e-05
0.00199947
-8.22001e-05
0.00200951
-7.99831e-05
0.00201972
-8.12622e-05
-7.46377e-05
0.00126703
-0.000180067
0.00128614
-0.00017881
0.00130512
-0.000177475
0.00132396
-0.000176066
0.00134265
-0.000174587
0.00136118
-0.000173043
0.00137955
-0.000171436
0.00139775
-0.000169772
0.00141577
-0.000168054
0.00143361
-0.000166286
0.00145127
-0.000164471
0.00146874
-0.000162612
0.00148602
-0.000160714
0.00150309
-0.00015878
0.00151997
-0.000156813
0.00153664
-0.000154816
0.0015531
-0.000152793
0.00156935
-0.000150747
0.00158539
-0.000148681
0.00160121
-0.000146598
0.00161682
-0.000144502
0.0016322
-0.000142395
0.00164737
-0.000140282
0.00166233
-0.000138165
0.00167706
-0.000136047
0.00169157
-0.000133932
0.00170587
-0.000131823
0.00171994
-0.000129724
0.00173381
-0.000127638
0.00174746
-0.000125569
0.00176089
-0.00012352
0.00177412
-0.000121495
0.00178714
-0.000119499
0.00179996
-0.000117534
0.00181258
-0.000115605
0.001825
-0.000113717
0.00183724
-0.000111873
0.00184929
-0.000110078
0.00186116
-0.000108336
0.00187286
-0.000106652
0.0018844
-0.00010503
0.00189578
-0.000103475
0.00190701
-0.000101988
0.00191809
-0.000100582
0.00192904
-9.92378e-05
0.00193987
-9.80037e-05
0.00195058
-9.67915e-05
0.00196119
-9.57693e-05
0.00197169
-9.46156e-05
0.00198213
-9.39149e-05
0.00199243
-9.25547e-05
0.00200274
-9.25116e-05
0.0020128
-9.00423e-05
0.00202304
-9.14986e-05
-8.40989e-05
0.00127761
-0.000199009
0.00129643
-0.000197632
0.00131512
-0.000196168
0.00133368
-0.000194624
0.0013521
-0.000193002
0.00137036
-0.000191307
0.00138847
-0.000189544
0.00140641
-0.000187717
0.00142419
-0.000185831
0.00144179
-0.000183888
0.00145922
-0.000181894
0.00147646
-0.000179852
0.00149351
-0.000177766
0.00151037
-0.00017564
0.00152703
-0.000173478
0.0015435
-0.000171282
0.00155976
-0.000169057
0.00157582
-0.000166807
0.00159168
-0.000164534
0.00160732
-0.000162243
0.00162276
-0.000159937
0.00163798
-0.000157619
0.00165299
-0.000155294
0.00166779
-0.000152964
0.00168238
-0.000150633
0.00169675
-0.000148306
0.00171091
-0.000145985
0.00172486
-0.000143675
0.0017386
-0.00014138
0.00175214
-0.000139103
0.00176547
-0.000136848
0.00177859
-0.00013462
0.00179152
-0.000132423
0.00180424
-0.000130262
0.00181678
-0.00012814
0.00182913
-0.000126063
0.00184129
-0.000124036
0.00185327
-0.000122063
0.00186509
-0.000120148
0.00187673
-0.000118298
0.00188822
-0.000116516
0.00189955
-0.00011481
0.00191074
-0.000113178
0.0019218
-0.000111637
0.00193272
-0.000110164
0.00194353
-0.000108813
0.00195423
-0.000107487
0.00196483
-0.000106372
0.00197533
-0.000105111
0.00198576
-0.000104354
0.00199607
-0.000102865
0.0020064
-0.000102839
0.00201649
-0.000100126
0.00202675
-0.000101765
-9.36086e-05
0.00128916
-0.000217626
0.00130766
-0.000216136
0.00132605
-0.000214551
0.0013443
-0.000212876
0.00136242
-0.000211118
0.00138039
-0.00020928
0.00139821
-0.000207367
0.00141588
-0.000205385
0.00143339
-0.000203337
0.00145072
-0.000201227
0.00146789
-0.000199061
0.00148488
-0.000196843
0.00150169
-0.000194576
0.00151832
-0.000192265
0.00153475
-0.000189914
0.001551
-0.000187526
0.00156705
-0.000185107
0.0015829
-0.000182659
0.00159855
-0.000180187
0.001614
-0.000177694
0.00162925
-0.000175185
0.00164429
-0.000172663
0.00165913
-0.000170133
0.00167377
-0.000167597
0.0016882
-0.000165061
0.00170242
-0.000162528
0.00171644
-0.000160003
0.00173025
-0.000157489
0.00174386
-0.00015499
0.00175727
-0.000152512
0.00177048
-0.000150058
0.00178349
-0.000147634
0.00179631
-0.000145244
0.00180894
-0.000142892
0.00182139
-0.000140584
0.00183365
-0.000138326
0.00184573
-0.000136121
0.00185765
-0.000133976
0.00186939
-0.000131895
0.00188098
-0.000129886
0.00189242
-0.000127951
0.00190371
-0.000126099
0.00191486
-0.000124329
0.00192588
-0.000122658
0.00193678
-0.000121063
0.00194757
-0.000119602
0.00195825
-0.000118168
0.00196884
-0.000116967
0.00197934
-0.000115605
0.00198978
-0.000114797
0.0020001
-0.000113188
0.00201045
-0.000113185
0.00202056
-0.000110238
0.00203086
-0.000112067
-0.000103173
0.00130163
-0.000235895
0.00131979
-0.000234297
0.00133783
-0.000232597
0.00135576
-0.000230801
0.00137355
-0.000228913
0.00139121
-0.000226939
0.00140873
-0.000224884
0.0014261
-0.000222753
0.00144331
-0.00022055
0.00146037
-0.000218282
0.00147726
-0.000215951
0.00149398
-0.000213564
0.00151053
-0.000211124
0.0015269
-0.000208636
0.00154309
-0.000206104
0.00155909
-0.000203532
0.00157491
-0.000200926
0.00159054
-0.000198288
0.00160598
-0.000195624
0.00162122
-0.000192938
0.00163627
-0.000190233
0.00165112
-0.000187515
0.00166578
-0.000184787
0.00168023
-0.000182054
0.00169449
-0.000179319
0.00170855
-0.000176588
0.00172241
-0.000173865
0.00173608
-0.000171154
0.00174955
-0.00016846
0.00176282
-0.000165788
0.00177591
-0.000163143
0.0017888
-0.00016053
0.00180151
-0.000157953
0.00181404
-0.000155419
0.00182639
-0.000152932
0.00183856
-0.000150498
0.00185056
-0.000148124
0.0018624
-0.000145814
0.00187408
-0.000143574
0.0018856
-0.000141412
0.00189698
-0.000139331
0.00190823
-0.000137341
0.00191934
-0.000135439
0.00193032
-0.000133646
0.00194119
-0.000131935
0.00195196
-0.000130371
0.00196263
-0.000128836
0.00197322
-0.000127555
0.00198372
-0.0001261
0.00199417
-0.000125249
0.00200451
-0.000123526
0.00201487
-0.000123554
0.00202502
-0.000120383
0.00203536
-0.000122408
-0.0001128
0.00131494
-0.00025379
0.00133274
-0.000252092
0.00135043
-0.000250285
0.001368
-0.000248374
0.00138545
-0.000246365
0.00140277
-0.000244262
0.00141996
-0.000242073
0.00143701
-0.000239801
0.00145392
-0.000237453
0.00147067
-0.000235033
0.00148726
-0.000232547
0.0015037
-0.000229998
0.00151997
-0.000227393
0.00153607
-0.000224736
0.00155199
-0.000222032
0.00156775
-0.000219284
0.00158332
-0.000216499
0.00159871
-0.00021368
0.00161392
-0.000210833
0.00162894
-0.000207961
0.00164378
-0.000205069
0.00165843
-0.000202162
0.00167288
-0.000199245
0.00168715
-0.000196321
0.00170123
-0.000193397
0.00171512
-0.000190475
0.00172881
-0.000187563
0.00174232
-0.000184663
0.00175564
-0.000181782
0.00176878
-0.000178924
0.00178173
-0.000176095
0.0017945
-0.0001733
0.00180709
-0.000170545
0.00181951
-0.000167836
0.00183176
-0.000165177
0.00184384
-0.000162577
0.00185575
-0.00016004
0.00186751
-0.000157573
0.00187912
-0.000155182
0.00189058
-0.000152874
0.0019019
-0.000150655
0.0019131
-0.000148533
0.00192417
-0.000146507
0.00193512
-0.0001446
0.00194596
-0.00014278
0.00195671
-0.000141121
0.00196737
-0.000139492
0.00197796
-0.00013814
0.00198845
-0.000136598
0.00199892
-0.000135712
0.00200927
-0.000133883
0.00201967
-0.00013395
0.00202985
-0.000130566
0.00204024
-0.000132796
-0.000122495
0.00132904
-0.000271289
0.00134645
-0.0002695
0.00136376
-0.000267593
0.00138096
-0.000265576
0.00139805
-0.000263453
0.00141501
-0.000261231
0.00143186
-0.000258916
0.00144857
-0.000256512
0.00146514
-0.000254027
0.00148157
-0.000251464
0.00149786
-0.00024883
0.00151399
-0.00024613
0.00152996
-0.000243369
0.00154578
-0.000240551
0.00156143
-0.000237683
0.00157691
-0.000234769
0.00159223
-0.000231814
0.00160737
-0.000228822
0.00162234
-0.0002258
0.00163713
-0.000222751
0.00165174
-0.000219681
0.00166617
-0.000216594
0.00168042
-0.000213496
0.00169449
-0.000210391
0.00170838
-0.000207285
0.00172209
-0.000204182
0.00173561
-0.000201088
0.00174896
-0.000198008
0.00176212
-0.000194948
0.00177511
-0.000191913
0.00178792
-0.000188908
0.00180056
-0.00018594
0.00181303
-0.000183015
0.00182534
-0.000180139
0.00183748
-0.000177317
0.00184946
-0.000174558
0.00186129
-0.000171867
0.00187296
-0.000169251
0.0018845
-0.000166716
0.0018959
-0.000164272
0.00190716
-0.000161921
0.00191831
-0.000159677
0.00192933
-0.000157535
0.00194025
-0.000155521
0.00195107
-0.000153601
0.00196181
-0.000151853
0.00197245
-0.000150139
0.00198304
-0.000148723
0.00199354
-0.000147103
0.00200402
-0.00014619
0.0020144
-0.000144264
0.00202483
-0.000144378
0.00203506
-0.000140793
0.00204549
-0.000143235
-0.000132267
0.00134384
-0.000288372
0.00136084
-0.0002865
0.00137775
-0.000284503
0.00139457
-0.000282387
0.00141127
-0.00028016
0.00142787
-0.000277827
0.00144435
-0.000275395
0.0014607
-0.000272869
0.00147693
-0.000270255
0.00149303
-0.000267559
0.00150899
-0.000264787
0.0015248
-0.000261944
0.00154047
-0.000259036
0.00155598
-0.000256068
0.00157135
-0.000253045
0.00158655
-0.000249973
0.00160159
-0.000246857
0.00161647
-0.000243703
0.00163119
-0.000240514
0.00164574
-0.000237298
0.00166011
-0.000234058
0.00167432
-0.000230801
0.00168836
-0.000227531
0.00170222
-0.000224254
0.00171591
-0.000220975
0.00172943
-0.0002177
0.00174278
-0.000214434
0.00175595
-0.000211183
0.00176896
-0.000207953
0.00178179
-0.000204749
0.00179446
-0.000201578
0.00180697
-0.000198446
0.00181931
-0.000195359
0.0018315
-0.000192325
0.00184353
-0.000189349
0.00185541
-0.000186439
0.00186715
-0.000183602
0.00187874
-0.000180846
0.0018902
-0.000178177
0.00190153
-0.000175604
0.00191274
-0.000173131
0.00192384
-0.000170772
0.00193483
-0.000168522
0.00194571
-0.000166409
0.00195651
-0.000164398
0.00196723
-0.000162571
0.00197787
-0.000160779
0.00198845
-0.000159308
0.00199897
-0.000157618
0.00200947
-0.000156688
0.00201988
-0.000154674
0.00203034
-0.000154843
0.00204062
-0.000151069
0.00205112
-0.000153732
-0.000142124
0.00135928
-0.000305022
0.00137585
-0.000303075
0.00139235
-0.000300996
0.00140875
-0.000298792
0.00142506
-0.00029647
0.00144127
-0.000294036
0.00145737
-0.000291496
0.00147336
-0.000288857
0.00148923
-0.000286125
0.00150497
-0.000283305
0.00152059
-0.000280405
0.00153608
-0.000277429
0.00155142
-0.000274383
0.00156663
-0.000271274
0.00158169
-0.000268107
0.00159661
-0.000264887
0.00161137
-0.00026162
0.00162598
-0.000258312
0.00164043
-0.000254968
0.00165473
-0.000251593
0.00166886
-0.000248194
0.00168284
-0.000244776
0.00169665
-0.000241344
0.0017103
-0.000237904
0.00172379
-0.000234462
0.00173711
-0.000231024
0.00175027
-0.000227596
0.00176327
-0.000224183
0.00177611
-0.000220792
0.00178879
-0.000217429
0.00180131
-0.0002141
0.00181368
-0.000210814
0.0018259
-0.000207575
0.00183796
-0.000204391
0.00184988
-0.00020127
0.00186166
-0.000198219
0.00187331
-0.000195246
0.00188482
-0.000192358
0.00189621
-0.000189563
0.00190747
-0.00018687
0.00191863
-0.000184285
0.00192968
-0.00018182
0.00194062
-0.000179471
0.00195148
-0.000177269
0.00196226
-0.000175174
0.00197297
-0.000173277
0.0019836
-0.000171417
0.0019942
-0.0001699
0.00200473
-0.000168149
0.00201525
-0.000167209
0.00202569
-0.000165118
0.0020362
-0.000165352
0.00204653
-0.000161403
0.0020571
-0.000164294
-0.000152074
0.00137526
-0.000321221
0.0013914
-0.000319209
0.00140746
-0.000317058
0.00142344
-0.000314776
0.00143934
-0.000312368
0.00145515
-0.000309843
0.00147086
-0.000307206
0.00148646
-0.000304464
0.00150196
-0.000301623
0.00151735
-0.000298691
0.00153261
-0.000295672
0.00154776
-0.000292573
0.00156278
-0.000289401
0.00157766
-0.000286161
0.00159241
-0.000282859
0.00160703
-0.000279501
0.0016215
-0.000276093
0.00163583
-0.000272642
0.00165002
-0.000269152
0.00166405
-0.00026563
0.00167794
-0.000262081
0.00169168
-0.000258512
0.00170526
-0.000254928
0.00171869
-0.000251336
0.00173197
-0.000247741
0.0017451
-0.00024415
0.00175807
-0.000240568
0.00177089
-0.000237004
0.00178356
-0.000233462
0.00179608
-0.000229949
0.00180845
-0.000226473
0.00182068
-0.000223041
0.00183277
-0.00021966
0.00184471
-0.000216337
0.00185652
-0.000213081
0.0018682
-0.000209898
0.00187975
-0.000206798
0.00189118
-0.000203788
0.0019025
-0.000200876
0.0019137
-0.000198073
0.0019248
-0.000195384
0.0019358
-0.000192823
0.00194672
-0.000190385
0.00195755
-0.000188102
0.00196831
-0.000185934
0.00197901
-0.000183975
0.00198965
-0.000182056
0.00200025
-0.000180502
0.0020108
-0.000178701
0.00202135
-0.000177761
0.00203184
-0.000175603
0.0020424
-0.000175911
0.00205279
-0.0001718
0.00206343
-0.00017493
-0.000162126
0.00139171
-0.000336956
0.00140739
-0.00033489
0.00142301
-0.000332677
0.00143856
-0.000330326
0.00145403
-0.000327844
0.00146943
-0.000325237
0.00148474
-0.000322514
0.00149995
-0.000319679
0.00151507
-0.000316741
0.00153008
-0.000313705
0.00154499
-0.000310579
0.00155979
-0.000307368
0.00157446
-0.000304079
0.00158902
-0.000300719
0.00160346
-0.000297293
0.00161777
-0.000293809
0.00163194
-0.000290271
0.00164599
-0.000286687
0.0016599
-0.000283062
0.00167367
-0.000279402
0.0016873
-0.000275714
0.0017008
-0.000272005
0.00171415
-0.00026828
0.00172736
-0.000264545
0.00174042
-0.000260807
0.00175335
-0.000257073
0.00176613
-0.00025335
0.00177877
-0.000249643
0.00179127
-0.000245961
0.00180363
-0.000242309
0.00181585
-0.000238696
0.00182794
-0.000235129
0.00183989
-0.000231615
0.00185172
-0.000228163
0.00186342
-0.000224781
0.00187499
-0.000221476
0.00188646
-0.000218259
0.0018978
-0.000215137
0.00190905
-0.000212119
0.00192019
-0.000209216
0.00193124
-0.000206432
0.0019422
-0.000203784
0.00195308
-0.000201266
0.00196389
-0.000198914
0.00197464
-0.000196681
0.00198533
-0.000194671
0.00199598
-0.000192703
0.0020066
-0.000191122
0.00201718
-0.000189279
0.00202777
-0.00018835
0.0020383
-0.000186135
0.00204892
-0.000186527
0.00205938
-0.000182269
0.0020701
-0.000185647
-0.000172289
0.00140854
0.00142375
-0.000350106
0.00143892
-0.000347842
0.00145402
-0.000345433
0.00146907
-0.000342887
0.00148404
-0.00034021
0.00149894
-0.00033741
0.00151375
-0.000334495
0.00152848
-0.000331469
0.00154312
-0.000328342
0.00155766
-0.000325119
0.0015721
-0.000321807
0.00158643
-0.000318413
0.00160066
-0.000314944
0.00161477
-0.000311405
0.00162876
-0.000307805
0.00164264
-0.000304148
0.00165639
-0.000300441
0.00167003
-0.000296692
0.00168353
-0.000292906
0.00169691
-0.000289091
0.00171015
-0.000285251
0.00172327
-0.000281395
0.00173625
-0.000277529
0.0017491
-0.00027366
0.00176183
-0.000269794
0.00177441
-0.000265938
0.00178687
-0.000262101
0.0017992
-0.000258288
0.0018114
-0.000254508
0.00182347
-0.000250768
0.00183542
-0.000247076
0.00184724
-0.00024344
0.00185895
-0.000239869
0.00187054
-0.000236372
0.00188202
-0.000232956
0.00189339
-0.000229632
0.00190466
-0.000226408
0.00191584
-0.000223294
0.00192692
-0.0002203
0.00193792
-0.000217432
0.00194885
-0.000214708
0.0019597
-0.000212121
0.0019705
-0.000209708
0.00198124
-0.000207421
0.00199193
-0.00020537
0.00200259
-0.000203362
0.00201324
-0.000201765
0.00202385
-0.000199891
0.00203448
-0.000198983
0.00204507
-0.000196722
0.00205575
-0.000197209
0.0020663
-0.000192819
0.00207711
-0.000196454
-0.000182575
0.0014404
-0.000364848
0.0014551
-0.000362544
0.00146976
-0.000360089
0.00148436
-0.00035749
0.00149891
-0.000354754
0.00151339
-0.00035189
0.00152779
-0.000348904
0.00154213
-0.000345803
0.00155638
-0.000342595
0.00157055
-0.000339287
0.00158463
-0.000335886
0.00159861
-0.000332398
0.0016125
-0.000328831
0.00162629
-0.000325191
0.00163997
-0.000321485
0.00165354
-0.00031772
0.001667
-0.000313904
0.00168035
-0.000310041
0.00169358
-0.00030614
0.0017067
-0.000302208
0.0017197
-0.00029825
0.00173258
-0.000294275
0.00174534
-0.000290288
0.00175798
-0.000286298
0.00177049
-0.000282311
0.00178289
-0.000278335
0.00179517
-0.000274377
0.00180732
-0.000270445
0.00181936
-0.000266547
0.00183128
-0.000262691
0.00184309
-0.000258885
0.00185479
-0.000255138
0.00186638
-0.000251459
0.00187787
-0.000247857
0.00188925
-0.00024434
0.00190054
-0.00024092
0.00191174
-0.000237605
0.00192285
-0.000234405
0.00193388
-0.000231331
0.00194484
-0.00022839
0.00195573
-0.0002256
0.00196656
-0.000222954
0.00197734
-0.00022049
0.00198808
-0.00021816
0.00199879
-0.000216078
0.00200947
-0.000214042
0.00202014
-0.000212438
0.0020308
-0.000210544
0.00204148
-0.000209668
0.00205213
-0.000207373
0.00206289
-0.000207966
0.00207353
-0.000203459
0.00208444
-0.000207361
-0.000192992
0.00145724
-0.000379112
0.00147148
-0.000376779
0.00148568
-0.000374288
0.00149984
-0.000371648
0.00151395
-0.000368865
0.001528
-0.000365948
0.001542
-0.000362903
0.00155594
-0.000359739
0.00156981
-0.000356462
0.0015836
-0.00035308
0.00159731
-0.000349601
0.00161095
-0.000346031
0.0016245
-0.000342378
0.00163795
-0.000338648
0.00165132
-0.000334849
0.00166458
-0.000330988
0.00167775
-0.000327072
0.00169082
-0.000323109
0.00170378
-0.000319104
0.00171664
-0.000315066
0.00172939
-0.000311001
0.00174204
-0.000306918
0.00175457
-0.000302822
0.001767
-0.000298722
0.00177931
-0.000294626
0.00179152
-0.00029054
0.00180361
-0.000286473
0.0018156
-0.000282433
0.00182748
-0.000278429
0.00183926
-0.000274468
0.00185093
-0.000270559
0.00186251
-0.000266712
0.00187398
-0.000262936
0.00188537
-0.00025924
0.00189666
-0.000255634
0.00190787
-0.000252128
0.001919
-0.000248733
0.00193005
-0.000245457
0.00194103
-0.000242315
0.00195195
-0.000239312
0.00196282
-0.000236466
0.00197364
-0.000233771
0.00198442
-0.000231269
0.00199516
-0.000228906
0.00200589
-0.000226804
0.0020166
-0.00022475
0.00202731
-0.000223151
0.00203801
-0.000221248
0.00204876
-0.000220414
0.00205948
-0.000218098
0.00207032
-0.000218806
0.00208106
-0.000214198
0.00209208
-0.000218379
-0.000203553
0.0014742
-0.000392892
0.00148796
-0.000390542
0.0015017
-0.000388028
0.00151541
-0.000385358
0.00152909
-0.00038254
0.00154272
-0.000379582
0.00155631
-0.000376491
0.00156984
-0.000373275
0.00158332
-0.000369941
0.00159674
-0.000366498
0.00161009
-0.000362953
0.00162337
-0.000359312
0.00163658
-0.000355585
0.00164971
-0.000351777
0.00166276
-0.000347897
0.00167572
-0.000343952
0.0016886
-0.000339949
0.00170138
-0.000335895
0.00171408
-0.000331799
0.00172668
-0.000327667
0.00173918
-0.000323507
0.00175159
-0.000319327
0.00176391
-0.000315134
0.00177612
-0.000310936
0.00178824
-0.000306741
0.00180025
-0.000302558
0.00181217
-0.000298394
0.001824
-0.000294257
0.00183573
-0.000290157
0.00184736
-0.000286103
0.0018589
-0.000282103
0.00187036
-0.000278167
0.00188173
-0.000274305
0.00189301
-0.000270526
0.00190422
-0.000266842
0.00191536
-0.000263262
0.00192642
-0.000259797
0.00193742
-0.000256458
0.00194837
-0.000253258
0.00195926
-0.000250203
0.0019701
-0.000247313
0.00198091
-0.000244581
0.0019917
-0.000242051
0.00200246
-0.000239666
0.00201321
-0.000237556
0.00202395
-0.000235494
0.00203471
-0.000233912
0.00204548
-0.000232011
0.00205629
-0.000231231
0.0020671
-0.000228905
0.00207804
-0.000229741
0.00208889
-0.000225048
0.00210002
-0.000229517
-0.000214268
0.00149117
-0.000406188
0.00150446
-0.000403833
0.00151774
-0.000401308
0.001531
-0.000398621
0.00154424
-0.00039578
0.00155745
-0.000392792
0.00157063
-0.000389667
0.00158377
-0.000386411
0.00159686
-0.000383033
0.0016099
-0.000379541
0.00162289
-0.000375942
0.00163582
-0.000372243
0.00164869
-0.000368454
0.00166149
-0.00036458
0.00167423
-0.000360631
0.00168689
-0.000356614
0.00169948
-0.000352535
0.00171199
-0.000348404
0.00172441
-0.000344228
0.00173676
-0.000340014
0.00174903