/*--------------------------------*- C++ -*----------------------------------*\
  =========                 |
  \\      /  F ield         | OpenFOAM: The Open Source CFD Toolbox
   \\    /   O peration     | Website:  https://openfoam.org
    \\  /    A nd           | Version:  7
     \\/     M anipulation  |
\*---------------------------------------------------------------------------*/
FoamFile
{
    version     2.0;
    format      ascii;
    class       volScalarField;
    location    "5";
    object      p;
}
// * * * * * * * * * * * * * * * * * * * * * * * * * * * * * * * * * * * * * //

dimensions      [0 2 -2 0 0 0 0];

internalField   nonuniform List<scalar> 
2625
(
-0.0419013
-0.0403093
-0.0387044
-0.0370921
-0.0354777
-0.0338666
-0.032264
-0.0306752
-0.0291051
-0.0275584
-0.0260399
-0.0245537
-0.0231039
-0.0216941
-0.0203277
-0.0190076
-0.0177362
-0.0165157
-0.0153477
-0.0142333
-0.0131735
-0.0121685
-0.0112184
-0.0103228
-0.00948084
-0.00869153
-0.00795353
-0.00726524
-0.00662489
-0.00603051
-0.00548003
-0.00497127
-0.00450201
-0.00406997
-0.0036729
-0.00330856
-0.00297474
-0.00266929
-0.00239013
-0.00213526
-0.00190274
-0.00169074
-0.0014975
-0.00132136
-0.0011607
-0.00101409
-0.000879817
-0.000757688
-0.000641262
-0.000552542
-0.000388906
-0.000603743
-0.0419344
-0.0403369
-0.0387268
-0.0371095
-0.0354904
-0.033875
-0.0322683
-0.0306757
-0.0291021
-0.0275523
-0.0260308
-0.0245421
-0.02309
-0.0216783
-0.0203102
-0.0189886
-0.0177161
-0.0164947
-0.015326
-0.0142112
-0.0131511
-0.0121461
-0.0111962
-0.0103008
-0.00945932
-0.00867058
-0.00793325
-0.00724573
-0.00660621
-0.00601272
-0.00546317
-0.00495536
-0.00448706
-0.004056
-0.0036599
-0.0032965
-0.0029636
-0.00265905
-0.00238075
-0.0021267
-0.00189497
-0.00168371
-0.00149118
-0.00131569
-0.00115566
-0.00100963
-0.00087585
-0.000754387
-0.000637627
-0.000552062
-0.00037573
-0.000613596
-0.0419984
-0.0403903
-0.03877
-0.0371432
-0.0355151
-0.0338911
-0.0322766
-0.0306767
-0.0290964
-0.0275404
-0.0260134
-0.0245197
-0.0230632
-0.0216477
-0.0202763
-0.018952
-0.0176772
-0.016454
-0.015284
-0.0141684
-0.0131079
-0.0121028
-0.0111531
-0.0102584
-0.00941771
-0.00863007
-0.00789404
-0.00720799
-0.00657007
-0.0059783
-0.00543054
-0.00492458
-0.00445816
-0.00402897
-0.00363472
-0.00327316
-0.00294205
-0.00263922
-0.00236259
-0.00211014
-0.00187992
-0.00167011
-0.00147893
-0.00130473
-0.00114589
-0.00100099
-0.000868207
-0.000747865
-0.000631311
-0.000548542
-0.000366741
-0.000616883
-0.0420909
-0.0404672
-0.0388323
-0.0371916
-0.0355504
-0.0339143
-0.0322883
-0.0306778
-0.0290877
-0.0275229
-0.0259879
-0.024487
-0.0230242
-0.0216031
-0.020227
-0.0188987
-0.0176207
-0.0163949
-0.0152231
-0.0141062
-0.0130451
-0.01204
-0.0110907
-0.0101968
-0.0093574
-0.00857135
-0.00783722
-0.00715331
-0.00651774
-0.00592845
-0.0053833
-0.00488002
-0.00441631
-0.00398984
-0.00359829
-0.00323938
-0.00291086
-0.00261054
-0.00233632
-0.00208618
-0.00185816
-0.00165043
-0.00146122
-0.00128887
-0.00113176
-0.0009885
-0.000857176
-0.000738419
-0.000622498
-0.00054284
-0.000357558
-0.000616417
-0.0422092
-0.0405657
-0.0389119
-0.0372533
-0.0355953
-0.0339433
-0.0323027
-0.0306786
-0.0290761
-0.0274998
-0.0259545
-0.0244444
-0.0229734
-0.0215452
-0.020163
-0.0188296
-0.0175475
-0.0163186
-0.0151444
-0.014026
-0.0129641
-0.0119589
-0.0110102
-0.0101174
-0.00927966
-0.00849571
-0.00776404
-0.00708291
-0.00645036
-0.00586431
-0.00532252
-0.0048227
-0.00436249
-0.00393953
-0.00355147
-0.00319598
-0.00287079
-0.0025737
-0.00230259
-0.00205541
-0.00183022
-0.00162517
-0.00143849
-0.00126852
-0.00111364
-0.000972482
-0.000843042
-0.000726305
-0.000611379
-0.000535234
-0.000346857
-0.000613692
-0.0423509
-0.0406834
-0.0390068
-0.0373266
-0.0356484
-0.0339774
-0.0323191
-0.0306786
-0.029061
-0.0274711
-0.0259134
-0.0243921
-0.0229114
-0.0214747
-0.0200852
-0.0187457
-0.0174587
-0.0162259
-0.0150489
-0.0139288
-0.012866
-0.0118607
-0.0109128
-0.0100214
-0.0091857
-0.00840431
-0.00767566
-0.00699791
-0.00636906
-0.00578693
-0.00524923
-0.0047536
-0.00429763
-0.00387892
-0.00349507
-0.00314371
-0.00282255
-0.00252936
-0.002262
-0.0020184
-0.00179663
-0.0015948
-0.00141117
-0.00124407
-0.00109187
-0.000953241
-0.000826076
-0.000711758
-0.000598154
-0.000525861
-0.000334914
-0.000608844
-0.0425137
-0.0408184
-0.0391153
-0.0374102
-0.0357084
-0.0340154
-0.0323366
-0.0306772
-0.0290422
-0.0274364
-0.0258644
-0.0243304
-0.0228384
-0.0213919
-0.019994
-0.0186476
-0.0173549
-0.0161178
-0.0149377
-0.0138156
-0.0127519
-0.0117466
-0.0107996
-0.00990995
-0.00907666
-0.00829829
-0.00757318
-0.00689941
-0.00627488
-0.00569733
-0.0051644
-0.00467365
-0.00422263
-0.00380886
-0.00342989
-0.00308333
-0.00276684
-0.00247817
-0.00221514
-0.0019757
-0.00175787
-0.00155978
-0.00137967
-0.00121588
-0.00106677
-0.000931075
-0.000806543
-0.000695006
-0.000583027
-0.000514868
-0.000321989
-0.000601879
-0.0426952
-0.0409685
-0.0392357
-0.0375024
-0.0357741
-0.0340564
-0.0323546
-0.0306739
-0.0290194
-0.0273958
-0.0258078
-0.0242595
-0.0227548
-0.0212973
-0.0198902
-0.018536
-0.0172371
-0.0159952
-0.0148117
-0.0136874
-0.0126227
-0.0116176
-0.0106717
-0.00978407
-0.00895358
-0.00817871
-0.00745766
-0.00678843
-0.00616882
-0.00559647
-0.00506895
-0.00458375
-0.00413832
-0.00373013
-0.00335669
-0.00301554
-0.00270432
-0.00242074
-0.0021626
-0.00192782
-0.00171442
-0.00152053
-0.00134438
-0.00118431
-0.00103868
-0.000906267
-0.000784694
-0.000676265
-0.000566193
-0.000502396
-0.000308238
-0.000592875
-0.0428931
-0.0411317
-0.039366
-0.0376017
-0.0358443
-0.0340993
-0.0323721
-0.030668
-0.028992
-0.0273489
-0.0257433
-0.0241793
-0.0226608
-0.0211914
-0.0197741
-0.0184115
-0.0171058
-0.0158587
-0.0146716
-0.013545
-0.0124794
-0.0114746
-0.01053
-0.00964477
-0.00881748
-0.00804655
-0.00733008
-0.00666594
-0.00605182
-0.00548529
-0.00496379
-0.00448473
-0.00404551
-0.00364351
-0.00327618
-0.00294102
-0.00263562
-0.00235765
-0.0021049
-0.00187527
-0.00166676
-0.00147749
-0.00130568
-0.0011497
-0.00100789
-0.000879092
-0.00076077
-0.000655742
-0.000547841
-0.000488577
-0.000293805
-0.000581929
-0.0431051
-0.0413061
-0.0395047
-0.0377067
-0.0359177
-0.0341431
-0.0323885
-0.030659
-0.0289597
-0.0272955
-0.0256709
-0.02409
-0.0225567
-0.0210744
-0.0196462
-0.0182746
-0.0169617
-0.0157092
-0.0145182
-0.0133894
-0.0123229
-0.0113185
-0.0103756
-0.009493
-0.00866931
-0.00790278
-0.00719137
-0.00653285
-0.00592479
-0.00536463
-0.00484974
-0.00437742
-0.00394497
-0.00354973
-0.00318906
-0.00286042
-0.00256134
-0.00228948
-0.00204258
-0.00181852
-0.0016153
-0.00143103
-0.00126394
-0.00111238
-0.000974706
-0.000849807
-0.000735003
-0.000633635
-0.000528149
-0.000473536
-0.000278832
-0.000569138
-0.0433292
-0.0414897
-0.0396501
-0.037816
-0.035993
-0.0341868
-0.0324027
-0.0306462
-0.0289221
-0.0272354
-0.0255905
-0.0239916
-0.0224425
-0.0209466
-0.0195068
-0.0181258
-0.0168054
-0.0155472
-0.0143523
-0.0132212
-0.012154
-0.0111503
-0.0102092
-0.00932965
-0.00850996
-0.00774828
-0.00704243
-0.00639004
-0.00578857
-0.00523534
-0.0047276
-0.00426256
-0.00383743
-0.00344947
-0.00309597
-0.00277434
-0.00248206
-0.00221674
-0.00197612
-0.00175803
-0.00156048
-0.00138156
-0.00121949
-0.00107266
-0.000939394
-0.000818659
-0.00070761
-0.00061013
-0.00050729
-0.000457388
-0.00026346
-0.000554595
-0.0435632
-0.0416808
-0.0398005
-0.037928
-0.0360691
-0.0342294
-0.0324142
-0.030629
-0.0288787
-0.0271682
-0.0255019
-0.0238841
-0.0223184
-0.0208082
-0.0193565
-0.0179655
-0.0166374
-0.0153734
-0.0141745
-0.0130412
-0.0119734
-0.0109706
-0.0100318
-0.00915556
-0.00834029
-0.0075839
-0.0068841
-0.00623835
-0.00564398
-0.0050982
-0.00459813
-0.00414089
-0.00372359
-0.00334339
-0.00299754
-0.00268337
-0.00239832
-0.00213995
-0.00190598
-0.00169423
-0.00150267
-0.00132941
-0.00117267
-0.00103083
-0.000902222
-0.00078588
-0.000678798
-0.000585399
-0.000485428
-0.000440243
-0.000247825
-0.000538388
-0.043805
-0.0418775
-0.0399544
-0.0380416
-0.0361449
-0.0342699
-0.0324221
-0.0306068
-0.028829
-0.0270936
-0.0254051
-0.0237675
-0.0221846
-0.0206596
-0.0191954
-0.0177943
-0.0164582
-0.0151884
-0.0139856
-0.0128502
-0.011782
-0.0107803
-0.00984398
-0.00897155
-0.00816111
-0.00741047
-0.00671717
-0.00607856
-0.00549179
-0.00495396
-0.00446206
-0.0040131
-0.00360409
-0.00323212
-0.00289436
-0.00258806
-0.00231063
-0.00205959
-0.00183262
-0.00162752
-0.00144226
-0.00127494
-0.00112378
-0.000987167
-0.000863436
-0.000751691
-0.000648765
-0.000559607
-0.00046272
-0.000422201
-0.000232052
-0.000520607
-0.0440528
-0.042078
-0.0401102
-0.0381553
-0.0362191
-0.0343074
-0.0324256
-0.030579
-0.0287727
-0.0270115
-0.0252999
-0.0236419
-0.0220411
-0.0205009
-0.019024
-0.0176126
-0.0162684
-0.0149926
-0.013786
-0.0126487
-0.0115803
-0.0105801
-0.00964665
-0.00877837
-0.00797318
-0.00722874
-0.00654242
-0.00591141
-0.00533273
-0.00480332
-0.00432006
-0.00387984
-0.00347957
-0.00311626
-0.00278697
-0.00248893
-0.00221948
-0.0019761
-0.00175644
-0.00155829
-0.0013796
-0.00121846
-0.00107311
-0.000941932
-0.00082327
-0.000716295
-0.000617693
-0.000532907
-0.000439313
-0.000403355
-0.000216263
-0.000501334
-0.0443046
-0.0422806
-0.0402664
-0.0382678
-0.0362908
-0.034341
-0.032424
-0.0305451
-0.0287093
-0.0269215
-0.0251861
-0.0235071
-0.0218882
-0.0203324
-0.0188425
-0.0174206
-0.0160683
-0.0147868
-0.0135765
-0.0124374
-0.0113692
-0.0103707
-0.00944048
-0.00857675
-0.00777725
-0.00703945
-0.00636057
-0.00573763
-0.00516749
-0.00464696
-0.00417278
-0.00374173
-0.00335062
-0.00299634
-0.00267591
-0.00238648
-0.00212533
-0.00188991
-0.00167784
-0.0014869
-0.00131501
-0.00116028
-0.00102092
-0.000895368
-0.000781943
-0.000679886
-0.000585757
-0.000505439
-0.000415349
-0.00038379
-0.000200572
-0.000480651
-0.0445586
-0.0424838
-0.0404216
-0.038378
-0.0363588
-0.0343698
-0.0324166
-0.0305044
-0.0286384
-0.0268234
-0.0250637
-0.0233633
-0.0217257
-0.0201542
-0.0186512
-0.0172188
-0.0158585
-0.0145713
-0.0133575
-0.012217
-0.0111491
-0.0101527
-0.00922616
-0.00836739
-0.007574
-0.0068433
-0.0061723
-0.00555788
-0.00499673
-0.00448551
-0.00402084
-0.00359936
-0.00321778
-0.00287291
-0.00256168
-0.00228116
-0.00202861
-0.00180143
-0.0015972
-0.00141368
-0.00124881
-0.00110066
-0.000967489
-0.000847704
-0.000739661
-0.000642642
-0.00055312
-0.000477334
-0.000390962
-0.000363582
-0.000185085
-0.000458636
-0.044813
-0.042686
-0.0405745
-0.0384846
-0.0364222
-0.034393
-0.0324027
-0.0304566
-0.0285597
-0.0267169
-0.0249324
-0.0232103
-0.021554
-0.0199665
-0.0184504
-0.0170075
-0.0156393
-0.0143466
-0.0131295
-0.0119879
-0.0109208
-0.00992686
-0.00900433
-0.00815094
-0.00736411
-0.00664094
-0.00597828
-0.00537281
-0.00482108
-0.00431959
-0.00386482
-0.00345329
-0.0030816
-0.00274646
-0.00244473
-0.00217342
-0.00192973
-0.00171102
-0.00151485
-0.00133896
-0.00118128
-0.00103988
-0.000913036
-0.000799151
-0.000696614
-0.000604729
-0.000519934
-0.000448712
-0.000366276
-0.000342801
-0.000169904
-0.000435363
-0.045066
-0.0428855
-0.0407236
-0.0385864
-0.0364798
-0.0344097
-0.0323816
-0.0304009
-0.0284727
-0.0266017
-0.0247922
-0.0230482
-0.021373
-0.0197696
-0.0182404
-0.0167872
-0.0154112
-0.0141132
-0.0128932
-0.0117507
-0.0106847
-0.0096937
-0.00877562
-0.00792805
-0.00714822
-0.00643301
-0.00577912
-0.00518303
-0.00464113
-0.00414976
-0.00370526
-0.00330403
-0.00294255
-0.00261745
-0.00232551
-0.00206367
-0.00182906
-0.00161904
-0.00143112
-0.00126303
-0.00111269
-0.000978185
-0.000857787
-0.000749907
-0.000652979
-0.000566301
-0.000486341
-0.000419683
-0.000341411
-0.000321509
-0.000155122
-0.000410902
-0.0453159
-0.0430809
-0.0408677
-0.0386823
-0.0365309
-0.0344191
-0.0323527
-0.0303371
-0.0283771
-0.0264777
-0.024643
-0.0228769
-0.0211828
-0.0195636
-0.0180214
-0.016558
-0.0151746
-0.0138716
-0.012649
-0.011506
-0.0104416
-0.00945384
-0.00854063
-0.00769932
-0.00692692
-0.00622012
-0.00557541
-0.00498911
-0.00445743
-0.00397655
-0.00354268
-0.00315207
-0.00280112
-0.00248634
-0.00220443
-0.00195227
-0.00172697
-0.00152581
-0.00134631
-0.00118616
-0.0010433
-0.000915794
-0.000801948
-0.000700155
-0.000608923
-0.0005275
-0.000452473
-0.000390346
-0.000316477
-0.000299762
-0.000140825
-0.000385322
-0.0455612
-0.0432708
-0.0410054
-0.0387713
-0.0365744
-0.0344205
-0.0323154
-0.0302645
-0.0282726
-0.0263446
-0.0244846
-0.0226966
-0.0209836
-0.0193486
-0.0177937
-0.0163205
-0.0149299
-0.0136222
-0.0123973
-0.0112543
-0.0101918
-0.00920782
-0.00829994
-0.00746533
-0.0067008
-0.00600284
-0.00536773
-0.00479162
-0.00427053
-0.0038005
-0.00337757
-0.00299789
-0.00265773
-0.00235352
-0.00208187
-0.00183961
-0.00162378
-0.00143165
-0.0012607
-0.00110862
-0.000973344
-0.000852921
-0.000745709
-0.000650064
-0.000564598
-0.000488454
-0.000418453
-0.000360791
-0.000291579
-0.00027761
-0.000127094
-0.000358687
-0.0458002
-0.0434538
-0.0411357
-0.0388522
-0.0366094
-0.0344132
-0.0322692
-0.0301827
-0.0281588
-0.0262022
-0.024317
-0.0225071
-0.0207755
-0.019125
-0.0175576
-0.0160748
-0.0146773
-0.0133655
-0.0121388
-0.0109961
-0.009936
-0.0089562
-0.0080541
-0.00722664
-0.00647041
-0.0057817
-0.00515661
-0.00459106
-0.00408092
-0.00362206
-0.00321039
-0.00284192
-0.0025128
-0.00221938
-0.00195819
-0.001726
-0.00151981
-0.00133684
-0.00117456
-0.00103064
-0.000903027
-0.00078976
-0.000689244
-0.000599787
-0.000520144
-0.000449283
-0.000384396
-0.000331099
-0.000266815
-0.000255095
-0.000114
-0.000331058
-0.0460314
-0.0436284
-0.0412573
-0.0389242
-0.0366353
-0.0343964
-0.0322133
-0.0300914
-0.0280355
-0.0260504
-0.0241402
-0.0223085
-0.0205586
-0.0188928
-0.0173133
-0.0158213
-0.0144175
-0.0131018
-0.0118737
-0.0107319
-0.00967463
-0.00869949
-0.00780363
-0.00698377
-0.00623628
-0.00555724
-0.00494254
-0.00438793
-0.00388908
-0.00344171
-0.00304158
-0.00268456
-0.00236672
-0.00208429
-0.00183374
-0.00161177
-0.00141534
-0.00124163
-0.00108811
-0.000952435
-0.000832554
-0.000726489
-0.000632717
-0.000549468
-0.000475692
-0.000410094
-0.000350406
-0.000301343
-0.000242275
-0.000232255
-0.000101612
-0.000302494
-0.0462534
-0.0437935
-0.041369
-0.0389862
-0.036651
-0.0343696
-0.0321475
-0.0299901
-0.0279024
-0.0258889
-0.0239539
-0.0221009
-0.0203329
-0.0186524
-0.0170611
-0.0155604
-0.0141506
-0.0128316
-0.0116026
-0.0104621
-0.0094082
-0.0084382
-0.00754904
-0.00673723
-0.00599891
-0.00532995
-0.00472603
-0.00418269
-0.00369546
-0.00325987
-0.00287153
-0.00252621
-0.00221984
-0.00194858
-0.00170881
-0.00149719
-0.00131063
-0.00114628
-0.0010016
-0.000874211
-0.000762107
-0.000663272
-0.000576273
-0.000499236
-0.00043136
-0.000370984
-0.000316581
-0.000271587
-0.000218043
-0.000209126
-8.99871e-05
-0.000273052
-0.0464647
-0.0439479
-0.04147
-0.0390373
-0.036656
-0.034332
-0.032071
-0.0298784
-0.0277592
-0.0257178
-0.0237583
-0.0218843
-0.0200987
-0.0184038
-0.0168013
-0.0152923
-0.0138771
-0.0125552
-0.0113259
-0.0101873
-0.00913719
-0.00817281
-0.00729083
-0.00648751
-0.00575879
-0.0051003
-0.00450752
-0.0039758
-0.00350048
-0.00307694
-0.00270064
-0.00236721
-0.0020725
-0.00181256
-0.00158371
-0.00138254
-0.00120593
-0.00105101
-0.000915212
-0.000796154
-0.000691854
-0.00060026
-0.00052005
-0.000449208
-0.000387256
-0.000332041
-0.000283009
-0.000241888
-0.000194196
-0.000185735
-7.91793e-05
-0.000242787
-0.0466641
-0.0440903
-0.0415591
-0.0390767
-0.0366495
-0.0342832
-0.0319837
-0.0297562
-0.0276058
-0.0255368
-0.0235533
-0.0216588
-0.019856
-0.0181473
-0.0165341
-0.0150174
-0.0135973
-0.0122732
-0.011044
-0.00990776
-0.00886205
-0.00790379
-0.00702946
-0.00623509
-0.00551637
-0.00486874
-0.00428745
-0.00376766
-0.00330454
-0.00289329
-0.00252925
-0.00220791
-0.00192501
-0.00167652
-0.0014587
-0.00126807
-0.00110148
-0.000956024
-0.000829144
-0.000718432
-0.000621947
-0.000537589
-0.000464171
-0.000399491
-0.00034348
-0.000293345
-0.000249772
-0.000212295
-0.000170805
-0.000162109
-6.9234e-05
-0.000211751
-0.0468503
-0.0442198
-0.0416354
-0.0391037
-0.0366308
-0.0342227
-0.031885
-0.0296231
-0.0274419
-0.0253459
-0.0233389
-0.0214244
-0.0196052
-0.0178832
-0.0162599
-0.014736
-0.0133116
-0.0119858
-0.0107574
-0.00962405
-0.00858323
-0.00763159
-0.00676538
-0.0059804
-0.00527209
-0.00463569
-0.00406622
-0.00355868
-0.00310802
-0.0027093
-0.0023577
-0.00204861
-0.00177766
-0.00154074
-0.00133402
-0.00115399
-0.000997468
-0.000861511
-0.000743565
-0.000641199
-0.000552527
-0.000475381
-0.000408746
-0.000350182
-0.000300121
-0.000254964
-0.000216943
-0.000182853
-0.000147935
-0.000138271
-6.019e-05
-0.000179998
-0.0470221
-0.0443352
-0.0416982
-0.0391175
-0.0365995
-0.0341499
-0.0317746
-0.0294789
-0.0272676
-0.0251451
-0.0231153
-0.0211814
-0.0193462
-0.0176116
-0.0159789
-0.0144485
-0.0130204
-0.0116935
-0.0104664
-0.00933656
-0.00830116
-0.00735666
-0.00649904
-0.00572387
-0.00502637
-0.00440155
-0.00384424
-0.00334921
-0.00291126
-0.00252527
-0.0021863
-0.00188961
-0.00163073
-0.00140545
-0.00120991
-0.00104053
-0.000894094
-0.000767644
-0.000658631
-0.000564596
-0.000483719
-0.000413749
-0.000353877
-0.000301366
-0.00025726
-0.000216961
-0.00018459
-0.0001536
-0.000125643
-0.000114242
-5.20789e-05
-0.000147579
-0.0471786
-0.0444358
-0.0417466
-0.0391176
-0.0365549
-0.0340646
-0.0316523
-0.0293234
-0.0270826
-0.0249343
-0.0228824
-0.0209299
-0.0190795
-0.0173329
-0.0156914
-0.0141552
-0.012724
-0.0113967
-0.0101715
-0.00904571
-0.00801627
-0.0070794
-0.00623084
-0.00546591
-0.00477961
-0.00416672
-0.00362186
-0.00313961
-0.00271459
-0.00234153
-0.00201535
-0.00173118
-0.00148445
-0.00127089
-0.00108657
-0.000927865
-0.00079153
-0.000674581
-0.000574485
-0.00048875
-0.000415637
-0.000352793
-0.000299655
-0.000253121
-0.000214969
-0.000179391
-0.000152772
-0.000124569
-0.00010398
-9.00408e-05
-4.49254e-05
-0.000114546
-0.0473186
-0.0445206
-0.0417799
-0.0391032
-0.0364967
-0.0339664
-0.0315179
-0.0291565
-0.026887
-0.0247137
-0.0226403
-0.02067
-0.0188051
-0.0170473
-0.0153977
-0.0138564
-0.0124229
-0.0110958
-0.00987303
-0.00875191
-0.00772898
-0.00680023
-0.00596118
-0.00520691
-0.00453219
-0.00393155
-0.00339943
-0.00293021
-0.00251833
-0.00215837
-0.0018451
-0.00157355
-0.00133906
-0.00113728
-0.000964202
-0.000816176
-0.000689934
-0.000582464
-0.000491254
-0.000413774
-0.000348384
-0.000292602
-0.000246161
-0.000205513
-0.000173313
-0.000142302
-0.000121543
-9.57875e-05
-8.29921e-05
-6.56867e-05
-3.87468e-05
-8.09501e-05
-0.0474415
-0.0445889
-0.0417976
-0.039074
-0.0364245
-0.0338549
-0.031371
-0.028978
-0.0266807
-0.0244832
-0.0223893
-0.0204019
-0.0185233
-0.0167551
-0.0150982
-0.0135525
-0.0121173
-0.010791
-0.00957146
-0.00845556
-0.00743967
-0.00651955
-0.00569046
-0.00494725
-0.00428446
-0.00369639
-0.00317728
-0.00272131
-0.00232276
-0.00197604
-0.00167581
-0.00141697
-0.00119477
-0.00100479
-0.000842974
-0.00070562
-0.000589449
-0.000491421
-0.000409053
-0.000339771
-0.000282051
-0.000233256
-0.000193467
-0.000158603
-0.000132349
-0.000105736
-9.09491e-05
-6.72815e-05
-6.27162e-05
-4.11975e-05
-3.35532e-05
-4.68452e-05
-0.0475463
-0.0446402
-0.0417991
-0.0390296
-0.036338
-0.0337302
-0.0312118
-0.0287881
-0.0264638
-0.024243
-0.0221294
-0.0201258
-0.0182344
-0.0164566
-0.0147931
-0.0132438
-0.0118076
-0.0104829
-0.00926714
-0.00815704
-0.00714873
-0.00623773
-0.00541905
-0.00468729
-0.00403676
-0.00346157
-0.00295571
-0.00251321
-0.00212815
-0.00179481
-0.0015077
-0.00126164
-0.00105178
-0.00087361
-0.000723047
-0.000596342
-0.000490204
-0.000401566
-0.000327984
-0.000266831
-0.000216719
-0.000174826
-0.000141636
-0.000112444
-9.2127e-05
-6.97279e-05
-6.10319e-05
-3.90723e-05
-4.31844e-05
-1.65914e-05
-2.93477e-05
-1.22847e-05
-0.0476325
-0.0446739
-0.0417841
-0.0389697
-0.036237
-0.0335919
-0.0310401
-0.0285867
-0.0262364
-0.0239933
-0.0218609
-0.019842
-0.0179387
-0.0161522
-0.0144829
-0.0129307
-0.0114943
-0.0101718
-0.00896046
-0.00785674
-0.00685655
-0.00595514
-0.00514729
-0.00442736
-0.00378943
-0.00322738
-0.00273502
-0.00230616
-0.00193475
-0.0016149
-0.001341
-0.00110776
-0.000910249
-0.000743896
-0.000604564
-0.000488469
-0.000392314
-0.000313003
-0.00024814
-0.000195035
-0.000152459
-0.000117372
-9.07234e-05
-6.70799e-05
-5.26905e-05
-3.431e-05
-3.1826e-05
-1.11793e-05
-2.4422e-05
8.11258e-06
-2.6126e-05
2.26763e-05
-0.0476995
-0.0446895
-0.0417521
-0.038894
-0.0361213
-0.03344
-0.0308559
-0.0283739
-0.0259986
-0.0237343
-0.0215841
-0.0195509
-0.0176365
-0.015842
-0.0141679
-0.0126136
-0.0111777
-0.00985812
-0.00865179
-0.00755504
-0.00656348
-0.00567213
-0.00487552
-0.00416779
-0.00354276
-0.00299412
-0.00251547
-0.00210043
-0.00174279
-0.00143652
-0.00117589
-0.000955507
-0.000770349
-0.000615791
-0.000487655
-0.000382117
-0.000295881
-0.000225822
-0.0001696
-0.000124453
-8.93338e-05
-6.09481e-05
-4.07775e-05
-2.2551e-05
-1.40765e-05
4.91408e-07
-3.36051e-06
1.63806e-05
-6.44774e-06
3.28944e-05
-2.38767e-05
5.79812e-05
-0.0477469
-0.0446868
-0.0417031
-0.0388024
-0.0359909
-0.0332747
-0.0306593
-0.0281498
-0.0257507
-0.0234661
-0.0212992
-0.0192526
-0.0173281
-0.0155266
-0.0138485
-0.0122929
-0.0108582
-0.00954218
-0.00834152
-0.00725229
-0.00626988
-0.00538905
-0.00460409
-0.00390888
-0.00329706
-0.00276207
-0.00229731
-0.00189624
-0.00155248
-0.00125987
-0.00101255
-0.000805035
-0.000632222
-0.000489427
-0.000372435
-0.000277389
-0.000200997
-0.000140103
-9.24354e-05
-5.51454e-05
-2.73967e-05
-5.59982e-06
8.16106e-06
2.11101e-05
2.36836e-05
3.46537e-05
2.43412e-05
4.35919e-05
1.07258e-05
5.77324e-05
-2.25814e-05
9.35717e-05
-0.0477745
-0.0446656
-0.0416368
-0.0386948
-0.0358459
-0.0330959
-0.0304505
-0.0279146
-0.0254929
-0.0231891
-0.0210065
-0.0189475
-0.0170138
-0.0152063
-0.013525
-0.0119688
-0.0105362
-0.00922437
-0.00803
-0.00694886
-0.00597609
-0.00510622
-0.00433328
-0.00365094
-0.00305259
-0.00253146
-0.00208078
-0.00169382
-0.00136404
-0.00108514
-0.000851152
-0.000656493
-0.000495998
-0.000364918
-0.000259008
-0.000174375
-0.000107742
-5.59161e-05
-1.67062e-05
1.28343e-05
3.33061e-05
4.8634e-05
5.60579e-05
6.38757e-05
6.05645e-05
6.81579e-05
5.1261e-05
7.04401e-05
2.70923e-05
8.26034e-05
-2.22149e-05
0.000129387
-0.047782
-0.0446257
-0.0415533
-0.0385714
-0.0356862
-0.0329038
-0.0302296
-0.0276686
-0.0252253
-0.0229035
-0.0207063
-0.018636
-0.0166941
-0.0148815
-0.0131977
-0.0116419
-0.0102119
-0.00890506
-0.00771759
-0.00664509
-0.00568245
-0.00482395
-0.00406341
-0.00339423
-0.0028096
-0.00230255
-0.0018661
-0.00149336
-0.00117762
-0.000912472
-0.00069183
-0.000510014
-0.000361794
-0.000242368
-0.000147463
-7.31554e-05
-1.6184e-05
2.66788e-05
5.75352e-05
7.94418e-05
9.27362e-05
0.000101721
0.000102885
0.000105723
9.65457e-05
0.000100988
7.73858e-05
9.69116e-05
4.26515e-05
0.000107482
-2.27456e-05
0.000165367
-0.0477694
-0.0445672
-0.0414526
-0.0384322
-0.0355122
-0.0326987
-0.029997
-0.0274122
-0.0249485
-0.0226098
-0.020399
-0.0183184
-0.0163694
-0.0145524
-0.0128672
-0.0113124
-0.00988592
-0.00858463
-0.00740465
-0.00634131
-0.00538927
-0.00454256
-0.00379474
-0.00313903
-0.00256836
-0.00207556
-0.00165348
-0.00129504
-0.000993412
-0.000742032
-0.000534723
-0.000365715
-0.000229715
-0.000121869
-3.78815e-05
2.62012e-05
7.36165e-05
0.000107631
0.000130245
0.00014464
0.000150862
0.000153635
0.000148619
0.000146633
0.000131612
0.000133131
0.000102708
0.000122993
5.74089e-05
0.000132341
-2.41356e-05
0.000201446
-0.0477368
-0.0444902
-0.0413349
-0.0382774
-0.0353241
-0.0324808
-0.0297529
-0.0271455
-0.0246627
-0.0223083
-0.020085
-0.0179952
-0.0160399
-0.0142196
-0.0125338
-0.0109808
-0.00955849
-0.00826343
-0.00709152
-0.00603786
-0.00509686
-0.00426231
-0.00352756
-0.00288557
-0.00232907
-0.00185069
-0.00144309
-0.00109904
-0.000811554
-0.00057395
-0.00037995
-0.000223701
-9.98511e-05
-3.49947e-06
6.9669e-05
0.000123636
0.000161609
0.000186897
0.000201387
0.000208399
0.000207658
0.000204355
0.000193244
0.000186592
0.000165752
0.000164576
0.000127223
0.000148672
7.13753e-05
0.000157152
-2.63413e-05
0.00023756
-0.0476843
-0.0443949
-0.0412004
-0.0381074
-0.0351221
-0.0322505
-0.0294978
-0.026869
-0.0243683
-0.0219993
-0.0197648
-0.0176667
-0.0157062
-0.0138835
-0.0121978
-0.0106475
-0.00923001
-0.00794181
-0.00677853
-0.00573505
-0.00480551
-0.0039835
-0.00326211
-0.00263409
-0.00209195
-0.00162814
-0.00123512
-0.000905514
-0.000632187
-0.000408347
-0.000227616
-8.40641e-05
2.77164e-05
0.000112671
0.000175129
0.000219098
0.000247752
0.000264442
0.000270932
0.000270694
0.000263104
0.000253865
0.000236746
0.00022559
0.00019896
0.000195314
0.000150932
0.000173936
8.45668e-05
0.000181881
-2.93138e-05
0.000273642
-0.0476121
-0.0442816
-0.0410496
-0.0379225
-0.0349068
-0.0320081
-0.029232
-0.0265832
-0.0240659
-0.0216835
-0.0194387
-0.0173334
-0.0153686
-0.0135444
-0.0118597
-0.0103128
-0.00890085
-0.00762012
-0.00646602
-0.00543317
-0.00451552
-0.00370639
-0.00299864
-0.00238481
-0.00185721
-0.00140808
-0.00102972
-0.000714596
-0.000455435
-0.000245332
-7.78171e-05
5.31139e-05
0.000152918
0.000226585
0.00027845
0.000312548
0.000332011
0.000340239
0.000338858
0.000331508
0.000317188
0.000302153
0.000279119
0.000263618
0.000231233
0.000225339
0.000173841
0.00019877
9.70045e-05
0.000206497
-3.29993e-05
0.000309625
-0.0475208
-0.0441507
-0.0408827
-0.0377231
-0.0346784
-0.0317543
-0.028956
-0.0262885
-0.0237557
-0.0213611
-0.0191072
-0.0169958
-0.0150277
-0.0132027
-0.0115199
-0.00997713
-0.00857137
-0.00729869
-0.00615429
-0.00513254
-0.00422715
-0.00343121
-0.00273737
-0.00213793
-0.00162502
-0.00119068
-0.000827043
-0.000526417
-0.000281409
-8.5e-05
6.93654e-05
0.000187763
0.000275696
0.000338191
0.00037959
0.000403952
0.00041436
0.000414265
0.000405148
0.000390828
0.000369899
0.000349214
0.000320358
0.000300673
0.000262573
0.000254645
0.000195957
0.000223163
0.000108713
0.000230963
-3.73399e-05
0.000345441
-0.0474106
-0.0440027
-0.0407003
-0.0375098
-0.0344376
-0.0314893
-0.0286704
-0.0259854
-0.0234384
-0.0210327
-0.0187708
-0.0166542
-0.0146837
-0.012859
-0.0111788
-0.00964084
-0.00824192
-0.00697787
-0.00584365
-0.00483343
-0.00394065
-0.0031582
-0.0024785
-0.00189365
-0.00139555
-0.000976083
-0.00062721
-0.00034109
-0.000110207
7.25634e-05
0.00021386
0.000319823
0.000395999
0.00044745
0.000478517
0.000493283
0.000494778
0.000486507
0.000469792
0.000448646
0.000421233
0.000395042
0.000360463
0.000336752
0.000292983
0.000283227
0.000217293
0.000247099
0.000119723
0.000255243
-4.22738e-05
0.000381021
-0.0472822
-0.0438381
-0.0405029
-0.0372831
-0.0341848
-0.0312139
-0.0283755
-0.0256744
-0.0231144
-0.0206988
-0.0184299
-0.0163092
-0.0143372
-0.0125136
-0.0108367
-0.00930431
-0.00791284
-0.00665796
-0.0055344
-0.0045361
-0.00365628
-0.0028876
-0.00222225
-0.00165213
-0.00116896
-0.000764431
-0.000430345
-0.000158719
5.80833e-05
0.000227285
0.000355604
0.000449245
0.000513788
0.000554329
0.000575206
0.000580523
0.000573253
0.000556955
0.000532784
0.000504959
0.00047119
0.000439638
0.000399437
0.000371856
0.000322471
0.000311084
0.000237865
0.000270567
0.000130066
0.000279299
-4.77364e-05
0.000416297
-0.0471361
-0.0436576
-0.0402912
-0.0370435
-0.0339207
-0.0309285
-0.0280721
-0.0253561
-0.0227843
-0.0203599
-0.0180851
-0.0159612
-0.0139887
-0.0121669
-0.0104941
-0.0089679
-0.00758447
-0.00633928
-0.00522682
-0.00424081
-0.00337426
-0.00261959
-0.00196879
-0.00141355
-0.000945399
-0.000555847
-0.000236554
2.06064e-05
0.000223385
0.000379102
0.000494548
0.000575985
0.000629029
0.000658804
0.000669639
0.00066566
0.000649775
0.000625604
0.000594122
0.000559768
0.000519772
0.000483006
0.000437288
0.000405988
0.000351047
0.000338213
0.000257688
0.000293551
0.000139778
0.00030309
-5.36605e-05
0.000451199
-0.0469731
-0.0434617
-0.0400658
-0.0367918
-0.0336459
-0.0306338
-0.0277607
-0.0250311
-0.0224487
-0.0200165
-0.0177368
-0.0156107
-0.0136384
-0.0118193
-0.0101514
-0.00863196
-0.00725714
-0.00602211
-0.00492118
-0.00394782
-0.00309481
-0.00235438
-0.0017183
-0.00117805
-0.000724984
-0.000350442
-4.59315e-05
0.000196807
0.000385634
0.000527961
0.000630648
0.000700013
0.000741699
0.000760858
0.000761805
0.000748688
0.000724344
0.000692455
0.00065381
0.000613077
0.000566988
0.000525152
0.000474024
0.000439152
0.000378724
0.000364614
0.000276785
0.000316038
0.000148897
0.000326579
-5.9977e-05
0.000485662
-0.0467939
-0.0432513
-0.0398274
-0.0365285
-0.033361
-0.0303304
-0.0274419
-0.0246998
-0.022108
-0.0196692
-0.0173855
-0.0152581
-0.013287
-0.0114712
-0.00980886
-0.00829685
-0.00693116
-0.00570676
-0.00461773
-0.00365733
-0.00281814
-0.00209215
-0.00147093
-0.000945769
-0.000507837
-0.000148313
0.000141443
0.000369817
0.000544777
0.000673821
0.000763875
0.000821306
0.000851783
0.00086048
0.0008517
0.000829605
0.000796962
0.000757514
0.000711857
0.000664895
0.000612848
0.000566084
0.000509659
0.000471357
0.000405518
0.000390287
0.000295177
0.000338015
0.000157464
0.000349723
-6.66156e-05
0.000519619
-0.0465992
-0.0430271
-0.0395767
-0.0362545
-0.0330668
-0.030019
-0.0271163
-0.024363
-0.0217628
-0.0193184
-0.0170318
-0.0149039
-0.0129347
-0.0111231
-0.00946689
-0.00796288
-0.00660682
-0.00539348
-0.00431672
-0.00336958
-0.00254444
-0.00183306
-0.00122682
-0.000716827
-0.000294059
5.0459e-05
0.000325503
0.000539585
0.000700775
0.000816653
0.000894207
0.000939851
0.000959275
0.000957673
0.000939329
0.000908422
0.000867641
0.000820794
0.000768277
0.000715236
0.000657366
0.000605816
0.000544207
0.00050261
0.000431445
0.000415235
0.000312889
0.000359468
0.000165521
0.000372485
-7.35051e-05
0.000553006
-0.0463899
-0.0427898
-0.0393145
-0.0359705
-0.0327639
-0.0297003
-0.0267846
-0.0240213
-0.0214137
-0.0189647
-0.0166761
-0.0145486
-0.0125821
-0.0107753
-0.00912586
-0.00763038
-0.00628441
-0.00508252
-0.00401836
-0.00308476
-0.00227386
-0.00157725
-0.000986102
-0.000491328
-8.3736e-05
0.000245782
0.000506175
0.000706049
0.000853577
0.000956419
0.00102162
0.00105563
0.00106416
0.00105243
0.00102469
0.000985136
0.000936383
0.000882299
0.000823076
0.000764109
0.000700554
0.000644356
0.000577681
0.000532919
0.000456522
0.000439457
0.000329945
0.000380382
0.000173108
0.000394823
-8.05761e-05
0.00058576
-0.0461668
-0.0425403
-0.0390416
-0.0356771
-0.032453
-0.0293748
-0.0264474
-0.0236751
-0.0210613