/*--------------------------------*- C++ -*----------------------------------*\
  =========                 |
  \\      /  F ield         | OpenFOAM: The Open Source CFD Toolbox
   \\    /   O peration     | Website:  https://openfoam.org
    \\  /    A nd           | Version:  7
     \\/     M anipulation  |
\*---------------------------------------------------------------------------*/
FoamFile
{
    version     2.0;
    format      ascii;
    class       volScalarField;
    location    "5";
    object      p;
}
// * * * * * * * * * * * * * * * * * * * * * * * * * * * * * * * * * * * * * //

dimensions      [0 2 -2 0 0 0 0];

internalField   nonuniform List<scalar> 
2625
(
0.621348
0.580934
0.621348
0.580934
0.534239
0.49614
0.45882
0.426783
0.397424
0.371902
0.349221
0.329545
0.312385
0.29767
0.285039
0.27449
0.265586
0.620779
0.580442
0.533819
0.495777
0.458507
0.42651
0.397185
0.371692
0.349035
0.32938
0.312237
0.297538
0.284919
0.274383
0.265481
0.619643
0.57946
0.532981
0.495052
0.457881
0.425964
0.396708
0.371271
0.348663
0.329049
0.311942
0.297273
0.284678
0.274169
0.265272
0.617939
0.577987
0.531725
0.493965
0.456942
0.425145
0.395992
0.370641
0.348106
0.328554
0.3115
0.296877
0.284318
0.273848
0.264957
0.615672
0.576026
0.530052
0.492519
0.455692
0.424055
0.395039
0.369802
0.347364
0.327895
0.310911
0.29635
0.283839
0.273422
0.264538
0.612842
0.57358
0.527965
0.490713
0.454132
0.422694
0.393849
0.368754
0.346438
0.327072
0.310175
0.295691
0.28324
0.27289
0.264016
0.57065
0.525465
0.48855
0.452263
0.421065
0.392423
0.367499
0.345328
0.326086
0.309294
0.294902
0.282523
0.272252
0.263391
0.56724
0.522556
0.486033
0.450087
0.419167
0.390764
0.366038
0.344036
0.324937
0.308268
0.293983
0.281688
0.271511
0.262663
0.563355
0.51924
0.483163
0.447607
0.417004
0.388871
0.364371
0.342562
0.323627
0.307097
0.292935
0.280736
0.270665
0.261834
0.558999
0.515521
0.479944
0.444825
0.414577
0.386748
0.362501
0.340908
0.322157
0.305784
0.291759
0.279668
0.269718
0.260905
0.554176
0.511403
0.47638
0.441744
0.411888
0.384395
0.360429
0.339076
0.320528
0.304328
0.290456
0.278485
0.268668
0.259876
0.548892
0.506891
0.472473
0.438366
0.40894
0.381816
0.358157
0.337066
0.318741
0.302731
0.289026
0.277187
0.267518
0.258748
0.543154
0.50199
0.468228
0.434695
0.405737
0.379012
0.355687
0.33488
0.316798
0.300995
0.287472
0.275776
0.266268
0.257524
0.536968
0.496704
0.46365
0.430735
0.40228
0.375986
0.35302
0.332521
0.314701
0.29912
0.285793
0.274253
0.26492
0.256204
0.53034
0.49104
0.458742
0.42649
0.398573
0.372741
0.35016
0.329991
0.31245
0.297109
0.283992
0.272619
0.263474
0.254789
0.52328
0.485003
0.453511
0.421963
0.39462
0.369279
0.347109
0.32729
0.310048
0.294962
0.28207
0.270875
0.261933
0.253282
0.515794
0.478601
0.447961
0.417159
0.390424
0.365605
0.343869
0.324422
0.307497
0.292681
0.280028
0.269023
0.260297
0.251683
0.507891
0.47184
0.442098
0.412084
0.38599
0.36172
0.340443
0.321389
0.304798
0.290269
0.277868
0.267065
0.258568
0.249994
0.499581
0.464727
0.435928
0.40674
0.38132
0.357628
0.336835
0.318194
0.301954
0.287726
0.275591
0.265001
0.256746
0.248216
0.490872
0.45727
0.429457
0.401135
0.376421
0.353334
0.333046
0.314838
0.298967
0.285055
0.273199
0.262833
0.254833
0.246352
0.481774
0.449477
0.422693
0.395273
0.371295
0.34884
0.329081
0.311325
0.295839
0.282257
0.270693
0.260563
0.252831
0.244403
0.472299
0.441356
0.41564
0.38916
0.365949
0.344151
0.324942
0.307657
0.292573
0.279335
0.268075
0.258192
0.250739
0.242371
0.462456
0.432915
0.408308
0.382802
0.360385
0.339271
0.320633
0.303838
0.28917
0.276291
0.265346
0.255722
0.248559
0.240257
0.424165
0.400703
0.376204
0.354611
0.334204
0.316157
0.299869
0.285634
0.273126
0.262509
0.253154
0.246291
0.238064
0.415113
0.392832
0.369374
0.348631
0.328955
0.311519
0.295755
0.281966
0.269843
0.259564
0.250489
0.243937
0.235794
0.40577
0.384704
0.362317
0.34245
0.323527
0.306722
0.291498
0.27817
0.266444
0.256514
0.247731
0.241497
0.233449
0.396145
0.376326
0.35504
0.336073
0.317925
0.301769
0.287102
0.274248
0.262932
0.25336
0.244879
0.23897
0.231032
0.386248
0.367707
0.34755
0.329508
0.312155
0.296665
0.28257
0.270203
0.259307
0.250103
0.241936
0.236357
0.228545
0.37609
0.358855
0.339854
0.322758
0.306221
0.291413
0.277905
0.266037
0.255574
0.246746
0.238904
0.233657
0.225991
0.365681
0.349779
0.331958
0.315831
0.300127
0.286019
0.273111
0.261754
0.251733
0.243289
0.235783
0.23087
0.223375
0.355032
0.340488
0.323871
0.308732
0.29388
0.280485
0.268191
0.257356
0.247789
0.239735
0.232577
0.227994
0.220699
0.344153
0.33099
0.3156
0.301467
0.287484
0.274817
0.263148
0.252846
0.243741
0.236085
0.229285
0.225028
0.21797
0.321296
0.307152
0.294043
0.280944
0.269019
0.257988
0.248228
0.239595
0.23234
0.225912
0.221968
0.215192
0.311413
0.298535
0.286466
0.274266
0.263095
0.252712
0.243503
0.23535
0.228503
0.222457
0.218814
0.212372
0.301352
0.289756
0.278743
0.267454
0.257049
0.247325
0.238676
0.231012
0.224574
0.218922
0.215559
0.209519
0.291122
0.280823
0.270879
0.260515
0.250886
0.241831
0.233749
0.22658
0.220556
0.215311
0.212201
0.206644
0.280732
0.271745
0.262883
0.253455
0.244612
0.236233
0.228726
0.22206
0.21645
0.211623
0.208733
0.203756
0.270193
0.26253
0.254759
0.246277
0.23823
0.230536
0.223609
0.217452
0.212259
0.207862
0.205145
0.200847
0.253184
0.246516
0.238989
0.231745
0.224743
0.218403
0.21276
0.207984
0.204028
0.201415
0.197981
0.243718
0.238159
0.231596
0.225162
0.218859
0.213109
0.207986
0.203628
0.20012
0.197551
0.195512
0.234138
0.229697
0.224103
0.218485
0.212887
0.207733
0.203133
0.199194
0.196139
0.193628
0.193682
0.224453
0.221134
0.216517
0.211721
0.206831
0.202277
0.198205
0.194684
0.192091
0.189553
0.190969
0.214671
0.21248
0.208843
0.204873
0.200695
0.196744
0.193203
0.190102
0.187977
0.185454
0.187767
0.20374
0.201087
0.197946
0.194485
0.191139
0.18813
0.185451
0.183795
0.181359
0.184441
0.194921
0.193254
0.190945
0.188203
0.185464
0.182991
0.180733
0.179544
0.177241
0.181046
0.18603
0.185352
0.183876
0.181854
0.179723
0.177786
0.175953
0.175224
0.173085
0.177558
0.177075
0.177384
0.176743
0.175441
0.17392
0.172519
0.171111
0.170838
0.168886
0.173967
0.169358
0.169551
0.16897
0.168059
0.167193
0.166212
0.166386
0.164642
0.170276
0.16128
0.162305
0.162445
0.162142
0.161811
0.161256
0.161871
0.160353
0.166487
0.153154
0.155011
0.155869
0.156173
0.156375
0.156247
0.157294
0.156018
0.162602
0.147672
0.149247
0.150157
0.150888
0.151187
0.152656
0.151636
0.158623
0.140294
0.142583
0.144096
0.145354
0.146078
0.14796
0.147207
0.15455
0.132883
0.135882
0.137994
0.139775
0.140923
0.143206
0.142732
0.129147
0.131856
0.134154
0.135724
0.138398
0.13821
0.122382
0.125684
0.128495
0.130483
0.133537
0.133643
0.119482
0.1228
0.125204
0.128625
0.129031
0.113255
0.117074
0.119889
0.123665
0.124376
0.107006
0.111318
0.114541
0.118659
0.119677
0.105537
0.109163
0.11361
0.114937
0.103757
0.108521
0.110158
0.0983278
0.103395
0.105341
0.0982347
0.093044
0.219472
0.219513
0.219476
0.219398
0.21925
0.219059
0.218821
0.218537
0.218209
0.217836
0.21742
0.21696
0.216457
0.21591
0.215318
0.214681
0.213999
0.21327
0.212493
0.211667
0.21079
0.209861
0.208876
0.207831
0.206724
0.205547
0.204308
0.202982
0.201749
0.200731
0.220365
0.220384
0.220337
0.22024
0.220109
0.21993
0.219708
0.219444
0.219139
0.218792
0.218406
0.217978
0.217508
0.216996
0.216441
0.215842
0.215196
0.214505
0.213765
0.212975
0.212134
0.211241
0.210294
0.209291
0.208234
0.207126
0.205973
0.204802
0.203711
0.202641
0.221268
0.221267
0.221212
0.221116
0.220985
0.220814
0.220605
0.22036
0.220078
0.219759
0.219405
0.219013
0.218583
0.218115
0.217608
0.217061
0.216473
0.215842
0.21517
0.214453
0.213692
0.212886
0.212035
0.211138
0.210197
0.209212
0.208187
0.207141
0.206074
0.204833
0.222186
0.222175
0.22212
0.22203
0.221909
0.221755
0.22157
0.221354
0.221107
0.22083
0.220518
0.220175
0.2198
0.219391
0.218949
0.218471
0.217958
0.217409
0.216822
0.216197
0.215534
0.214832
0.214089
0.213308
0.212486
0.211624
0.210724
0.209804
0.208827
0.207615
0.223116
0.223097
0.223042
0.222959
0.22285
0.222714
0.222553
0.222365
0.222151
0.221911
0.221643
0.221348
0.221024
0.220671
0.220289
0.219875
0.21943
0.218953
0.218443
0.217899
0.21732
0.216706
0.216056
0.215371
0.21465
0.213892
0.213102
0.212298
0.21143
0.21031
0.224056
0.224029
0.223974
0.223896
0.223799
0.22368
0.22354
0.223379
0.223196
0.222991
0.222763
0.222512
0.222236
0.221935
0.221608
0.221255
0.220874
0.220464
0.220025
0.219556
0.219057
0.218526
0.217964
0.21737
0.216745
0.216087
0.2154
0.214702
0.213939
0.212919
0.225004
0.224969
0.224914
0.224843
0.224756
0.224653
0.224534
0.224399
0.224245
0.224075
0.223885
0.223676
0.223446
0.223196
0.222923
0.222627
0.222307
0.221963
0.221594
0.221198
0.220776
0.220325
0.219848
0.219342
0.218807
0.218243
0.217653
0.217054
0.21639
0.215473
0.225958
0.225917
0.225862
0.225796
0.22572
0.225633
0.225535
0.225424
0.225299
0.225161
0.225009
0.22484
0.224655
0.224453
0.224232
0.223992
0.223731
0.22345
0.223146
0.22282
0.22247
0.222098
0.221701
0.221278
0.22083
0.220355
0.219856
0.21935
0.218781
0.217967
0.226916
0.22687
0.226815
0.226755
0.22669
0.226618
0.226539
0.226452
0.226355
0.226249
0.226132
0.226003
0.22586
0.225704
0.225533
0.225346
0.225142
0.22492
0.22468
0.22442
0.22414
0.22384
0.223517
0.223174
0.22281
0.222423
0.222009
0.221592
0.221112
0.220401
0.227877
0.227825
0.227771
0.227718
0.227663
0.227606
0.227545
0.227481
0.227411
0.227336
0.227252
0.227161
0.227059
0.226947
0.226824
0.226688
0.226538
0.226373
0.226194
0.225997
0.225784
0.225553
0.225303
0.225034
0.224746
0.224435
0.224113
0.223789
0.223388
0.222775
0.228838
0.228781
0.228728
0.228681
0.228636
0.228593
0.228552
0.228509
0.228466
0.228419
0.228368
0.228313
0.228251
0.228181
0.228103
0.228016
0.227918
0.227808
0.227686
0.22755
0.2274
0.227235
0.227055
0.226858
0.226643
0.22641
0.22616
0.225902
0.225601
0.225089
0.229797
0.229736
0.229684
0.229643
0.229608
0.22958
0.229555
0.229535
0.229516
0.229497
0.229478
0.229457
0.229432
0.229403
0.229369
0.229328
0.229279
0.229222
0.229155
0.229077
0.228988
0.228886
0.228771
0.228643
0.2285
0.22834
0.228167
0.227991
0.227761
0.227339
0.230752
0.230687
0.230637
0.230601
0.230577
0.230562
0.230555
0.230554
0.230559
0.230568
0.230579
0.230591
0.230602
0.230612
0.23062
0.230623
0.230622
0.230614
0.230599
0.230577
0.230545
0.230504
0.230452
0.230388
0.230312
0.230222
0.230122
0.230019
0.229863
0.229531
0.2317
0.231632
0.231584
0.231554
0.231539
0.231538
0.231547
0.231567
0.231595
0.231629
0.231669
0.231712
0.231758
0.231806
0.231853
0.231899
0.231942
0.231982
0.232018
0.232048
0.232071
0.232087
0.232095
0.232093
0.232081
0.232058
0.232026
0.231993
0.231908
0.231663
0.23264
0.232569
0.232523
0.232499
0.232494
0.232505
0.232531
0.232569
0.232619
0.232678
0.232746
0.23282
0.232899
0.232981
0.233067
0.233153
0.23324
0.233325
0.233408
0.233488
0.233564
0.233635
0.233699
0.233756
0.233806
0.233846
0.233879
0.233912
0.233896
0.233734
0.233568
0.233496
0.233451
0.233434
0.233438
0.233462
0.233503
0.23356
0.233631
0.233714
0.233808
0.23391
0.234021
0.234137
0.234259
0.234384
0.234512
0.23464
0.234769
0.234897
0.235022
0.235145
0.235263
0.235377
0.235485
0.235585
0.23568
0.235776
0.235825
0.235743
0.234483
0.234409
0.234367
0.234356
0.234369
0.234405
0.234461
0.234536
0.234627
0.234733
0.234852
0.234982
0.235123
0.235272
0.235428
0.23559
0.235756
0.235926
0.236098
0.236271
0.236444
0.236616
0.236786
0.236953
0.237116
0.237273
0.237428
0.237584
0.237696
0.237689
0.235381
0.235307
0.235267
0.235262
0.235285
0.235332
0.235403
0.235495
0.235605
0.235733
0.235876
0.236033
0.236202
0.236382
0.236571
0.236768
0.236971
0.23718
0.237393
0.237609
0.237827
0.238046
0.238265
0.238483
0.238699
0.238911
0.239122
0.239334
0.239505
0.239572
0.236262
0.236186
0.23615
0.236151
0.236183
0.236242
0.236326
0.236434
0.236563
0.236712
0.236878
0.23706
0.237256
0.237465
0.237686
0.237916
0.238155
0.238401
0.238653
0.23891
0.239171
0.239434
0.2397
0.239966
0.240231
0.240495
0.240759
0.241026
0.241254
0.24139
0.237121
0.237046
0.237013
0.23702
0.23706
0.23713
0.237228
0.237352
0.237499
0.237667
0.237856
0.238062
0.238284
0.238521
0.238771
0.239032
0.239304
0.239586
0.239875
0.240171
0.240472
0.240778
0.241087
0.241399
0.241711
0.242024
0.242339
0.242657
0.242939
0.243141
0.237958
0.237883
0.237853
0.237867
0.237915
0.237996
0.238107
0.238246
0.23841
0.238597
0.238806
0.239035
0.239281
0.239545
0.239823
0.240114
0.240418
0.240733
0.241057
0.241389
0.241729
0.242075
0.242426
0.24278
0.243138
0.243497
0.24386
0.244227
0.24456
0.244825
0.238769
0.238695
0.238669
0.238688
0.238745
0.238837
0.23896
0.239113
0.239293
0.239498
0.239727
0.239977
0.240247
0.240535
0.24084
0.24116
0.241494
0.24184
0.242197
0.242564
0.24294
0.243324
0.243714
0.244109
0.244509
0.244912
0.24532
0.245732
0.246116
0.246439
0.239553
0.23948
0.239457
0.239483
0.239548
0.239649
0.239784
0.239951
0.240146
0.240369
0.240616
0.240887
0.241179
0.241491
0.241821
0.242167
0.242529
0.242905
0.243293
0.243693
0.244103
0.244522
0.244949
0.245383
0.245823
0.246267
0.246717
0.247173
0.247603
0.247983
0.240307
0.240235
0.240216
0.240248
0.240321
0.240432
0.240578
0.240758
0.240968
0.241206
0.241472
0.241761
0.242074
0.242408
0.242761
0.243133
0.243521
0.243925
0.244343
0.244773
0.245215
0.245668
0.24613
0.2466
0.247077
0.24756
0.248051
0.248547
0.249021
0.249453
0.241029
0.240958
0.240943
0.240981
0.241062
0.241182
0.241339
0.241531
0.241755
0.242009
0.24229
0.242598
0.242931
0.243285
0.243661
0.244056
0.244469
0.244899
0.245344
0.245803
0.246275
0.246759
0.247254
0.247758
0.24827
0.24879
0.249317
0.249852
0.250367
0.250849
0.241717
0.241648
0.241637
0.24168
0.241768
0.241897
0.242064
0.242268
0.242505
0.242773
0.243071
0.243395
0.243746
0.24412
0.244516
0.244934
0.24537
0.245824
0.246295
0.246781
0.247281
0.247794
0.248319
0.248855
0.2494
0.249953
0.250516
0.251087
0.251641
0.252169
0.242369
0.242302
0.242294
0.242344
0.242439
0.242576
0.242753
0.242967
0.243216
0.243498
0.24381
0.244151
0.244518
0.24491
0.245326
0.245764
0.246222
0.246699
0.247193
0.247704
0.24823
0.248771
0.249324
0.249889
0.250465
0.25105
0.251645
0.252249
0.25284
0.253411
0.242982
0.242917
0.242914
0.242969
0.24307
0.243215
0.243401
0.243626
0.243886
0.24418
0.244506
0.244862
0.245245
0.245654
0.246088
0.246544
0.247022
0.24752
0.248037
0.248571
0.249121
0.249687
0.250266
0.250859
0.251462
0.252077
0.252702
0.253337
0.253962
0.254573
0.243556
0.243493
0.243494
0.243554
0.243661
0.243814
0.244008
0.244242
0.244513
0.244819
0.245158
0.245527
0.245924
0.246349
0.246799
0.247273
0.24777
0.248287
0.248824
0.24938
0.249952
0.250541
0.251144
0.251762
0.252391
0.253033
0.253686
0.254349
0.255006
0.255653
0.244089
0.244028
0.244032
0.244097
0.24421
0.24437
0.244572
0.244815
0.245096
0.245412
0.245762
0.246143
0.246554
0.246993
0.247459
0.247949
0.248462
0.248997
0.249553
0.250128
0.250721
0.251331
0.251956
0.252596
0.25325
0.253916
0.254595
0.255284
0.25597
0.25665
0.244578
0.244519
0.244527
0.244596
0.244715
0.244881
0.24509
0.245341
0.245631
0.245957
0.246318
0.24671
0.247134
0.247586
0.248065
0.248569
0.249098
0.249649
0.250222
0.250814
0.251426
0.252055
0.2527
0.253361
0.254037
0.254725
0.255427
0.256139
0.256852
0.257563
0.245023
0.244966
0.244977
0.24505
0.245175
0.245346
0.245562
0.24582
0.246118
0.246453
0.246823
0.247226
0.24766
0.248124
0.248615
0.249133
0.249675
0.250241
0.250828
0.251437
0.252065
0.252711
0.253375
0.254055
0.254749
0.255458
0.25618
0.256914
0.257651
0.258389
0.245422
0.245367
0.245381
0.245458
0.245587
0.245763
0.245985
0.24625
0.246555
0.246897
0.247276
0.247688
0.248132
0.248606
0.249108
0.249638
0.250192
0.250771
0.251372
0.251995
0.252637
0.253299
0.253979
0.254675
0.255387
0.256113
0.256854
0.257607
0.258364
0.259127
0.245774
0.24572
0.245737
0.245818
0.24595
0.246131
0.246358
0.246629
0.24694
0.24729
0.247676
0.248096
0.248548
0.249031
0.249543
0.250083
0.250648
0.251238
0.251851
0.252486
0.253141
0.253816
0.25451
0.255221
0.255948
0.25669
0.257446
0.258216
0.258992
0.259776
0.246078
0.246025
0.246044
0.246128
0.246264
0.246449
0.246681
0.246956
0.247273
0.247628
0.248021
0.248448
0.248907
0.249398
0.249918
0.250467
0.251041
0.25164
0.252264
0.252909
0.253576
0.254262
0.254968
0.255691
0.256431
0.257186
0.257957
0.25874
0.259533
0.260334
0.246332
0.246281
0.246302
0.246388
0.246527
0.246716
0.246951
0.247231
0.247552
0.247912
0.24831
0.248743
0.249208
0.249706
0.250233
0.250788
0.25137
0.251978
0.252609
0.253263
0.253939
0.254635
0.255351
0.256084
0.256835
0.257602
0.258383
0.259179
0.259985
0.260801
0.246537
0.246487
0.246509
0.246598
0.246739
0.24693
0.247168
0.247451
0.247776
0.248141
0.248542
0.24898
0.24945
0.249953
0.250485
0.251047
0.251635
0.252249
0.252887
0.253548
0.254231
0.254935
0.255658
0.2564
0.257159
0.257935
0.258726
0.259531
0.260348
0.261176
0.246691
0.246641
0.246665
0.246755
0.246898
0.247091
0.247332
0.247618
0.247945
0.248312
0.248718
0.249158
0.249633
0.250139
0.250676
0.251241
0.251834
0.252453
0.253096
0.253762
0.254451
0.255161
0.25589
0.256638
0.257403
0.258186
0.258983
0.259796
0.26062
0.261458
0.246793
0.246745
0.246769
0.24686
0.247005
0.247199
0.247442
0.247729
0.248058
0.248427
0.248835
0.249277
0.249754
0.250263
0.250803
0.251371
0.251967
0.252589
0.253235
0.253906
0.254598
0.255311
0.256044
0.256797
0.257566
0.258353
0.259156
0.259972
0.260803
0.261646
0.246845
0.246796
0.246821
0.246913
0.247058
0.247253
0.247496
0.247784
0.248115
0.248485
0.248893
0.249337
0.249815
0.250326
0.250866
0.251436
0.252034
0.252657
0.253305
0.253977
0.254671
0.255387
0.256122
0.256876
0.257648
0.258437
0.259242
0.260061
0.260894
0.26174
0.206802
0.20573
0.204588
0.203376
0.202095
0.200745
0.199325
0.197837
0.19628
0.194654
0.192959
0.191202
0.189368
0.187504
0.185496
0.183697
0.181104
0.214036
0.214075
0.213928
0.213727
0.213416
0.21303
0.212557
0.212007
0.211379
0.210678
0.209903
0.209056
0.208137
0.207149
0.20609
0.204961
0.203763
0.202496
0.20116
0.199754
0.198279
0.196734
0.195121
0.193436
0.191689
0.189861
0.188004
0.185992
0.18421
0.181577
0.214289
0.214328
0.214182
0.213984
0.213678
0.213296
0.21283
0.212289
0.21167
0.210979
0.210215
0.209379
0.208473
0.207497
0.206452
0.205337
0.204153
0.2029
0.201578
0.200186
0.198725
0.197193
0.195592
0.193919
0.192181
0.190359
0.18851
0.186493
0.184729
0.182052
0.214543
0.214581
0.214437
0.214242
0.21394
0.213564
0.213105
0.212571
0.211962
0.211281
0.210528
0.209704
0.20881
0.207847
0.206815
0.205715
0.204545
0.203306
0.201999
0.200621
0.199174
0.197656
0.196068
0.194406
0.192678
0.190863
0.189022
0.186999
0.185252
0.18253
0.214797
0.214834
0.214692
0.2145
0.214202
0.213833
0.213381
0.212855
0.212255
0.211584
0.210842
0.21003
0.209149
0.208199
0.207181
0.206094
0.204939
0.203715
0.202422
0.20106
0.199627
0.198123
0.196548
0.194898
0.193181
0.191373
0.189539
0.187511
0.185779
0.183009
0.215052
0.215088
0.214948
0.214759
0.214465
0.214102
0.213657
0.213139
0.212549
0.211888
0.211157
0.210357
0.209489
0.208552
0.207548
0.206476
0.205335
0.204126
0.202849
0.201501
0.200083
0.198594
0.197033
0.195395
0.19369
0.191889
0.190063
0.188027
0.18631
0.18349
0.215308
0.215343
0.215204
0.215018
0.214729
0.214371
0.213933
0.213424
0.212843
0.212192
0.211472
0.210685
0.209829
0.208907
0.207916
0.206859
0.205733
0.20454
0.203277
0.201945
0.200542
0.199068
0.197521
0.195896
0.194203
0.19241
0.190592
0.188549
0.186845
0.183972
0.215564
0.215597
0.215461
0.215277
0.214993
0.214641
0.21421
0.213709
0.213137
0.212497
0.211789
0.211013
0.210171
0.209262
0.208286
0.207243
0.206133
0.204954
0.203708
0.202391
0.201005
0.199545
0.198013
0.196402
0.194721
0.192937
0.191127
0.189077
0.187384
0.184455
0.21582
0.215852
0.215717
0.215536
0.215256
0.21491
0.214487
0.213994
0.213432
0.212802
0.212106
0.211342
0.210513
0.209618
0.208656
0.207628
0.206533
0.205371
0.20414
0.20284
0.201469
0.200026
0.198509
0.196912
0.195245
0.193469
0.191669
0.189611
0.187927
0.184939
0.216076
0.216106
0.215974
0.215795
0.21552
0.21518
0.214763
0.21428
0.213727
0.213108
0.212423
0.211672
0.210856
0.209974
0.209028
0.208015
0.206935
0.205789
0.204574
0.20329
0.201936
0.200509
0.199008
0.197426
0.195773
0.194008
0.192217
0.190152
0.188473
0.185424
0.216332
0.216361
0.21623
0.216054
0.215784
0.215449
0.21504
0.214565
0.214022
0.213413
0.21274
0.212002
0.211199
0.210332
0.209399
0.208402
0.207338
0.206208
0.20501
0.203743
0.202405
0.200995
0.199511
0.197945
0.196306
0.194552
0.192771
0.1907
0.189023
0.18591
0.216588
0.216615
0.216486
0.216313
0.216047
0.215718
0.215317
0.21485
0.214317
0.213719
0.213057
0.212331
0.211542
0.210689
0.209771
0.208789
0.207742
0.206628
0.205447
0.204197
0.202876
0.201483
0.200016
0.198466
0.196844
0.195102
0.193333
0.191257
0.189579
0.186397
0.216844
0.216869
0.216742
0.216571
0.21631
0.215987
0.215593
0.215135
0.214611
0.214024
0.213374
0.212661
0.211885
0.211046
0.210144
0.209177
0.208146
0.207049
0.205885
0.204652
0.203349
0.201973
0.200524
0.198992
0.197386
0.195659
0.193902
0.191823
0.190141
0.186886
0.217099
0.217122
0.216997
0.216829
0.216572
0.216255
0.215869
0.215419
0.214905
0.214329
0.213691
0.21299
0.212228
0.211404
0.210516
0.209566
0.20855
0.20747
0.206323
0.205108
0.203823
0.202465
0.201034
0.19952
0.197932
0.196222
0.194479
0.192401
0.190712
0.187379
0.217354
0.217375
0.217252
0.217086
0.216834
0.216523
0.216144
0.215702
0.215198
0.214633
0.214007
0.213319
0.212571
0.211761
0.210889
0.209954
0.208955
0.207891
0.206762
0.205565
0.204298
0.202959
0.201547
0.200051
0.198482
0.196791
0.195063
0.192992
0.191293
0.187878
0.217609
0.217627
0.217506
0.217342
0.217095
0.21679
0.216418
0.215986
0.215491
0.214937
0.214323
0.213648
0.212913
0.212118
0.211261
0.210342
0.20936
0.208314
0.207202
0.206023
0.204775
0.203455
0.202062
0.200587
0.199038
0.197367
0.195658
0.193601
0.191892
0.188391
0.217863
0.217878
0.217759
0.217598
0.217356
0.217057
0.216693
0.216269
0.215785
0.215242
0.214639
0.213978
0.213257
0.212477
0.211636
0.210733
0.209768
0.20874
0.207646
0.206486
0.205257
0.203957
0.202585
0.201131
0.199603
0.197957
0.19627
0.194235
0.192521
0.188932
0.218117
0.218128
0.218012
0.217852
0.217615
0.217322
0.216965
0.21655
0.216076
0.215543
0.214953
0.214305
0.213598
0.212832
0.212007
0.21112
0.210172
0.209161
0.208086
0.206945
0.205735
0.204455
0.203103
0.201671
0.200166
0.198546
0.196884
0.194885
0.193171
0.18949
0.218369
0.218376
0.21826
0.218101
0.217867
0.217579
0.217228
0.21682
0.216354
0.215831
0.21525
0.214613
0.213917
0.213163
0.21235
0.211477
0.210543
0.209546
0.208485
0.207358
0.206164
0.204899
0.203563
0.202148
0.200661
0.199064
0.197427
0.195473
0.193769
0.189956
0.21862
0.218621
0.218506
0.218347
0.218117
0.217833
0.217487
0.217085
0.216626
0.216111
0.215539
0.214911
0.214225
0.213481
0.212679
0.211816
0.210892
0.209906
0.208856
0.207739
0.206555
0.205301
0.203975
0.202571
0.201095
0.199518
0.1979
0.196009
0.194339
0.190352
0.218875
0.21888
0.218777
0.21863
0.218414
0.218145
0.217818
0.217437
0.217001
0.216511
0.215966
0.215367
0.214713
0.214003
0.213236
0.212411
0.211527
0.210582
0.209576
0.208505
0.207369
0.206164
0.204889
0.20354
0.202119
0.200606
0.199051
0.197292
0.19573
0.192011
0.180735
0.181288
0.181843
0.177429
0.182398
0.177894
0.182952
0.178363
0.176132
0.183502
0.178839
0.176607
0.184046
0.179321
0.177081
0.173738
0.18458
0.179809
0.177554
0.174194
0.1851
0.180304
0.178025
0.174654
0.171588
0.185602
0.180806
0.178494
0.175116
0.172025
0.18608
0.181313
0.17896
0.17558
0.172464
0.169138
0.186527
0.181827
0.179423
0.176046
0.172905
0.16956
0.186934
0.182343
0.179883
0.176513
0.173346
0.169984
0.166583
0.18729
0.18286
0.180341
0.176982
0.17379
0.170409
0.166985
0.187582
0.183372
0.180794
0.177448
0.174232
0.170834
0.167387
0.187799
0.183871
0.18124
0.17791
0.174671
0.171256
0.167785
0.164225
0.187924
0.184359
0.181691
0.178379
0.175119
0.171687
0.168193
0.164611
0.187903
0.184835
0.182177
0.178891
0.175613
0.172163
0.168645
0.165038
0.187602
0.185178
0.182606
0.179365
0.176072
0.172605
0.169061
0.165429
0.161726
0.187082
0.185146
0.182638
0.179428
0.176123
0.172647
0.169089
0.165444
0.161726
)
;

boundaryField
{
    inlet
    {
        type            zeroGradient;
    }
    outlet
    {
        type            fixedValue;
        value           nonuniform 0();
    }
    cylinder
    {
        type            zeroGradient;
    }
    top
    {
        type            symmetryPlane;
    }
    bottom
    {
        type            symmetryPlane;
    }
    defaultFaces
    {
        type            empty;
    }
    procBoundary4to0
    {
        type            processor;
        value           nonuniform List<scalar> 
77
(
0.157935
0.154076
0.150384
0.150148
0.150384
0.146127
0.141782
0.137348
0.132829
0.128228
0.123547
0.118788
0.113958
0.100488
0.100488
0.0956017
0.206458
0.205373
0.204218
0.202992
0.201698
0.200334
0.198901
0.197399
0.19583
0.194193
0.192488
0.190721
0.188881
0.18701
0.185005
0.183189
0.180635
0.213784
0.213824
0.213675
0.213471
0.213156
0.212764
0.212284
0.211726
0.21109
0.210378
0.209593
0.208734
0.207804
0.207804
0.180185
0.180185
0.176514
0.176969
0.176969
0.175184
0.175658
0.175658
0.172835
0.173285
0.173285
0.170718
0.171152
0.171152
0.1683
0.168718
0.168718
0.165784
0.166183
0.166183
0.163089
0.163469
0.163849
0.163849
0.160595
0.160958
0.16136
0.16136
0.157949
0.157935
)
;
    }
    procBoundary4to5
    {
        type            processor;
        value           nonuniform List<scalar> 
76
(
0.680355
0.679683
0.67834
0.676327
0.673647
0.670304
0.609455
0.609455
0.605513
0.601023
0.595989
0.590417
0.584315
0.57769
0.57055
0.562904
0.554762
0.546132
0.537027
0.527456
0.517432
0.506967
0.496074
0.484765
0.452256
0.452256
0.441712
0.430834
0.419636
0.408129
0.396326
0.384241
0.371886
0.359276
0.333056
0.333056
0.321753
0.310254
0.298571
0.286717
0.274702
0.259515
0.259515
0.248706
0.237778
0.22674
0.215602
0.204801
0.204801
0.194852
0.18483
0.174745
0.168063
0.168063
0.159
0.149893
0.144987
0.144987
0.136785
0.128554
0.125443
0.125443
0.117978
0.115594
0.115594
0.108784
0.101958
0.100738
0.100738
0.0997341
0.0997341
0.0939126
0.0928774
0.0928774
0.0874096
0.0878265
)
;
    }
    procBoundary4to8
    {
        type            processor;
        value           nonuniform List<scalar> 
46
(
0.620779
0.580442
0.534239
0.534239
0.49614
0.45882
0.426783
0.397424
0.371902
0.34922
0.329545
0.312385
0.29767
0.285039
0.27449
0.265586
0.246845
0.246796
0.246821
0.246913
0.247058
0.247253
0.247496
0.247784
0.248115
0.248485
0.248893
0.249337
0.249815
0.250326
0.250866
0.251436
0.252034
0.252657
0.253305
0.253977
0.254671
0.255387
0.256122
0.256876
0.257648
0.258437
0.259242
0.260061
0.260894
0.26174
)
;
    }
    procBoundary4to9
    {
        type            processor;
        value           uniform 0.680355;
    }
}


// ************************************************************************* //
