/*--------------------------------*- C++ -*----------------------------------*\
  =========                 |
  \\      /  F ield         | OpenFOAM: The Open Source CFD Toolbox
   \\    /   O peration     | Website:  https://openfoam.org
    \\  /    A nd           | Version:  7
     \\/     M anipulation  |
\*---------------------------------------------------------------------------*/
FoamFile
{
    version     2.0;
    format      ascii;
    class       volScalarField;
    location    "15";
    object      p;
}
// * * * * * * * * * * * * * * * * * * * * * * * * * * * * * * * * * * * * * //

dimensions      [0 2 -2 0 0 0 0];

internalField   nonuniform List<scalar> 
42000
(
-0.409736
-0.409336
-0.399443
-0.385354
-0.369014
-0.349793
-0.330051
-0.309035
-0.288136
-0.267007
-0.246478
-0.226218
-0.207152
-0.188236
-0.171663
-0.153851
-0.141326
-0.123134
-0.117302
-0.0967203
-0.410013
-0.409502
-0.399597
-0.385463
-0.369113
-0.349872
-0.330123
-0.309098
-0.288196
-0.267062
-0.246531
-0.226269
-0.207203
-0.188284
-0.171716
-0.153891
-0.141391
-0.123138
-0.117439
-0.0965521
-0.410566
-0.409833
-0.399907
-0.38568
-0.369309
-0.35003
-0.330267
-0.309226
-0.288315
-0.267174
-0.246639
-0.226372
-0.207306
-0.18838
-0.17182
-0.153971
-0.141522
-0.123146
-0.117711
-0.0962198
-0.411395
-0.410329
-0.400369
-0.386006
-0.369603
-0.350266
-0.330483
-0.309416
-0.288494
-0.26734
-0.246799
-0.226526
-0.207458
-0.188523
-0.171976
-0.154091
-0.141717
-0.123161
-0.118111
-0.0957317
-0.412496
-0.410989
-0.400984
-0.386438
-0.369994
-0.350579
-0.330768
-0.309668
-0.28873
-0.267561
-0.247012
-0.226729
-0.20766
-0.188713
-0.172181
-0.15425
-0.141973
-0.123183
-0.118635
-0.0951
-0.413868
-0.411811
-0.40175
-0.386976
-0.37048
-0.350968
-0.331124
-0.309981
-0.289023
-0.267835
-0.247275
-0.226982
-0.20791
-0.188949
-0.172436
-0.154448
-0.142288
-0.123214
-0.11927
-0.0943406
-0.415507
-0.412792
-0.402665
-0.387619
-0.37106
-0.351433
-0.331547
-0.310353
-0.289372
-0.26816
-0.247588
-0.227282
-0.208207
-0.189229
-0.172737
-0.154685
-0.142658
-0.123257
-0.120007
-0.0934724
-0.417408
-0.413931
-0.403726
-0.388364
-0.371732
-0.35197
-0.332037
-0.310784
-0.289775
-0.268536
-0.247949
-0.227627
-0.208549
-0.189552
-0.173083
-0.154958
-0.143079
-0.123314
-0.120832
-0.0925174
-0.419568
-0.415225
-0.404931
-0.389209
-0.372494
-0.352579
-0.332591
-0.311271
-0.29023
-0.26896
-0.248356
-0.228017
-0.208934
-0.189915
-0.173471
-0.155267
-0.143547
-0.12339
-0.121731
-0.0914995
-0.421982
-0.41667
-0.406277
-0.390152
-0.373344
-0.353258
-0.333208
-0.311812
-0.290736
-0.26943
-0.248807
-0.228448
-0.209359
-0.190317
-0.173898
-0.15561
-0.144056
-0.123486
-0.122687
-0.0904447
-0.424642
-0.418264
-0.40776
-0.391191
-0.37428
-0.354003
-0.333885
-0.312405
-0.291289
-0.269944
-0.249299
-0.228918
-0.209823
-0.190755
-0.174361
-0.155987
-0.144601
-0.123607
-0.123685
-0.0893796
-0.427544
-0.420003
-0.409378
-0.392323
-0.375297
-0.354813
-0.33462
-0.313048
-0.291888
-0.270499
-0.24983
-0.229425
-0.210321
-0.191227
-0.174856
-0.156394
-0.145175
-0.123754
-0.124707
-0.0883314
-0.43068
-0.421882
-0.411125
-0.393544
-0.376395
-0.355685
-0.33541
-0.313738
-0.292529
-0.271094
-0.250397
-0.229966
-0.210851
-0.191729
-0.17538
-0.15683
-0.145773
-0.123931
-0.125738
-0.0873269
-0.434048
-0.423894
-0.412998
-0.394852
-0.377569
-0.356616
-0.336252
-0.314472
-0.293211
-0.271724
-0.250997
-0.230538
-0.211409
-0.192258
-0.175927
-0.157292
-0.146388
-0.12414
-0.12676
-0.086392
-0.437642
-0.426032
-0.414992
-0.396243
-0.378817
-0.357604
-0.337145
-0.315248
-0.29393
-0.272387
-0.251628
-0.231136
-0.211991
-0.192811
-0.176494
-0.157776
-0.147012
-0.124382
-0.127759
-0.0855505
-0.441426
-0.428313
-0.417103
-0.397713
-0.380135
-0.358645
-0.338084
-0.316063
-0.294683
-0.27308
-0.252284
-0.231759
-0.212595
-0.193383
-0.177076
-0.158279
-0.147638
-0.124658
-0.128718
-0.0848243
-0.445419
-0.430712
-0.419326
-0.39926
-0.381519
-0.359737
-0.339066
-0.316914
-0.295468
-0.273799
-0.252964
-0.232401
-0.213214
-0.193971
-0.177666
-0.158798
-0.14826
-0.124968
-0.129624
-0.084232
-0.449609
-0.433224
-0.421656
-0.40088
-0.382967
-0.360876
-0.34009
-0.317797
-0.29628
-0.274542
-0.253662
-0.233059
-0.213845
-0.194569
-0.178261
-0.159327
-0.14887
-0.12531
-0.130463
-0.0837891
-0.453985
-0.435847
-0.424087
-0.402568
-0.384474
-0.36206
-0.341151
-0.31871
-0.297117
-0.275304
-0.254376
-0.233729
-0.214484
-0.195172
-0.178853
-0.159862
-0.149461
-0.125683
-0.131226
-0.0835069
-0.458535
-0.438575
-0.426615
-0.40432
-0.386038
-0.363284
-0.342246
-0.31965
-0.297975
-0.276082
-0.255101
-0.234405
-0.215124
-0.195776
-0.179437
-0.160398
-0.150025
-0.126083
-0.131902
-0.0833928
-0.463251
-0.441403
-0.429234
-0.406134
-0.387653
-0.364547
-0.343373
-0.320612
-0.29885
-0.276872
-0.255832
-0.235084
-0.215761
-0.196375
-0.180006
-0.160927
-0.150555
-0.126506
-0.132481
-0.0834499
-0.468122
-0.444325
-0.431938
-0.408005
-0.389317
-0.365843
-0.344528
-0.321594
-0.29974
-0.27767
-0.256567
-0.235761
-0.216388
-0.196963
-0.180555
-0.161445
-0.151045
-0.126946
-0.132959
-0.0836769
-0.473138
-0.447333
-0.434722
-0.409928
-0.391026
-0.367172
-0.345707
-0.322593
-0.30064
-0.278472
-0.257298
-0.236429
-0.217002
-0.197533
-0.181076
-0.161945
-0.151488
-0.127399
-0.133329
-0.0840686
-0.478289
-0.450423
-0.43758
-0.4119
-0.392776
-0.368528
-0.346907
-0.323605
-0.301546
-0.279274
-0.258023
-0.237085
-0.217594
-0.198079
-0.181562
-0.162419
-0.151877
-0.127856
-0.133588
-0.0846157
-0.483563
-0.453588
-0.440506
-0.413916
-0.394563
-0.36991
-0.348125
-0.324627
-0.302456
-0.280071
-0.258735
-0.237721
-0.21816
-0.198595
-0.182008
-0.162861
-0.152206
-0.128311
-0.133734
-0.0853055
-0.488952
-0.45682
-0.443494
-0.415974
-0.396383
-0.371313
-0.349358
-0.325654
-0.303363
-0.280858
-0.25943
-0.238333
-0.218692
-0.199073
-0.182404
-0.163263
-0.152469
-0.128756
-0.133765
-0.0861224
-0.494442
-0.460115
-0.446538
-0.418067
-0.398233
-0.372734
-0.350602
-0.326684
-0.304265
-0.281631
-0.260102
-0.238914
-0.219184
-0.199507
-0.182746
-0.163618
-0.15266
-0.129183
-0.133682
-0.0870484
-0.500024
-0.463465
-0.449633
-0.420193
-0.400109
-0.37417
-0.351854
-0.327712
-0.305157
-0.282385
-0.260745
-0.239457
-0.21963
-0.199889
-0.183026
-0.163919
-0.152775
-0.129583
-0.133486
-0.0880634
-0.505687
-0.466862
-0.452771
-0.422347
-0.402006
-0.375618
-0.353109
-0.328735
-0.306034
-0.283115
-0.261354
-0.239957
-0.220021
-0.200212
-0.183236
-0.164157
-0.152808
-0.129948
-0.133179
-0.0891465
-0.511418
-0.470302
-0.455948
-0.424524
-0.403921
-0.377074
-0.354365
-0.329748
-0.306892
-0.283815
-0.261922
-0.240406
-0.220352
-0.200469
-0.183371
-0.164327
-0.152754
-0.13027
-0.132763
-0.090276
-0.517207
-0.473776
-0.459156
-0.426721
-0.40585
-0.378534
-0.355616
-0.330748
-0.307726
-0.284479
-0.262444
-0.240798
-0.220616
-0.200652
-0.183424
-0.16442
-0.15261
-0.13054
-0.132242
-0.0914301
-0.523042
-0.477277
-0.462389
-0.428933
-0.407789
-0.379994
-0.35686
-0.331729
-0.308531
-0.285102
-0.262912
-0.241125
-0.220805
-0.200755
-0.183388
-0.16443
-0.152372
-0.130752
-0.131617
-0.0925879
-0.528912
-0.480799
-0.465641
-0.431155
-0.409732
-0.381452
-0.358092
-0.332687
-0.3093
-0.285678
-0.26332
-0.241381
-0.220912
-0.20077
-0.183258
-0.164351
-0.152036
-0.130897
-0.13089
-0.0937293
-0.534804
-0.484334
-0.468905
-0.433383
-0.411677
-0.382902
-0.359307
-0.333618
-0.310029
-0.2862
-0.263661
-0.241559
-0.22093
-0.20069
-0.183028
-0.164177
-0.151599
-0.13097
-0.130065
-0.094837
-0.540708
-0.487875
-0.472175
-0.435612
-0.413619
-0.384341
-0.360501
-0.334515
-0.310712
-0.286662
-0.263929
-0.241652
-0.220853
-0.200509
-0.182693
-0.163901
-0.15106
-0.130964
-0.129141
-0.0958991
-0.546611
-0.491414
-0.475444
-0.437838
-0.415552
-0.385763
-0.361669
-0.335374
-0.311342
-0.287057
-0.264115
-0.241651
-0.220674
-0.20022
-0.182247
-0.163518
-0.150415
-0.130873
-0.128118
-0.0969064
-0.552501
-0.494944
-0.478705
-0.440055
-0.417472
-0.387166
-0.362806
-0.336188
-0.311913
-0.287378
-0.264214
-0.241551
-0.220386
-0.199818
-0.181687
-0.163024
-0.149664
-0.130694
-0.126992
-0.097832
-0.558366
-0.498457
-0.481951
-0.442258
-0.419373
-0.388542
-0.363906
-0.336952
-0.312419
-0.287619
-0.264218
-0.241344
-0.219984
-0.199296
-0.181008
-0.162414
-0.148806
-0.130421
-0.12575
-0.0986363
-0.564194
-0.501945
-0.485175
-0.444442
-0.421251
-0.389888
-0.364963
-0.337659
-0.312852
-0.287771
-0.264119
-0.241024
-0.21946
-0.198651
-0.180207
-0.161683
-0.14784
-0.130052
-0.124374
-0.0994683
-0.569973
-0.505401
-0.48837
-0.446601
-0.423099
-0.391198
-0.365971
-0.338303
-0.313205
-0.287827
-0.263911
-0.240584
-0.218811
-0.197876
-0.17928
-0.160829
-0.146767
-0.129575
-0.122887
-0.100993
-0.575693
-0.508818
-0.491529
-0.448732
-0.424914
-0.392467
-0.366924
-0.338877
-0.313471
-0.287781
-0.263587
-0.240017
-0.218029
-0.196967
-0.178225
-0.159847
-0.145588
-0.128975
-0.121385
-0.103657
-0.581334
-0.512182
-0.494641
-0.450823
-0.426686
-0.393685
-0.367815
-0.339373
-0.313642
-0.287625
-0.263139
-0.239318
-0.217112
-0.195922
-0.177039
-0.158735
-0.144301
-0.128237
-0.119842
-0.104731
-0.586886
-0.515488
-0.497699
-0.452871
-0.428408
-0.394849
-0.368635
-0.339783
-0.313711
-0.28735
-0.262561
-0.23848
-0.216053
-0.194735
-0.17572
-0.15749
-0.142907
-0.12735
-0.118291
-0.105035
-0.592337
-0.518726
-0.500695
-0.454868
-0.430075
-0.39595
-0.369378
-0.340101
-0.313669
-0.28695
-0.261846
-0.237499
-0.214849
-0.193405
-0.174267
-0.156111
-0.141406
-0.126313
-0.116729
-0.104984
-0.597673
-0.521888
-0.503621
-0.456807
-0.43168
-0.396981
-0.370036
-0.340316
-0.313508
-0.286416
-0.260988
-0.236369
-0.213497
-0.191929
-0.172678
-0.154596
-0.139796
-0.125127
-0.115141
-0.104632
-0.60288
-0.524964
-0.506468
-0.458682
-0.433213
-0.397934
-0.370601
-0.340423
-0.313221
-0.285743
-0.25998
-0.235085
-0.211993
-0.190305
-0.170951
-0.152945
-0.138076
-0.123793
-0.113515
-0.104001
-0.607944
-0.527945
-0.509225
-0.460484
-0.434668
-0.398802
-0.371063
-0.34041
-0.312798
-0.284922
-0.258817
-0.233643
-0.210334
-0.188531
-0.169087
-0.151158
-0.136245
-0.122313
-0.111839
-0.103123
-0.612851
-0.53082
-0.511884
-0.462204
-0.436034
-0.399575
-0.371414
-0.340271
-0.312233
-0.283947
-0.257492
-0.23204
-0.208519
-0.186606
-0.167085
-0.149234
-0.134302
-0.12069
-0.110102
-0.102027
-0.617587
-0.53358
-0.514435
-0.463835
-0.437304
-0.400245
-0.371644
-0.339996
-0.311516
-0.28281
-0.256002
-0.230271
-0.206544
-0.18453
-0.164944
-0.147174
-0.132245
-0.118926
-0.108293
-0.100736
-0.622136
-0.536214
-0.516867
-0.465366
-0.438468
-0.400801
-0.371745
-0.339576
-0.31064
-0.281506
-0.254341
-0.228334
-0.204409
-0.182302
-0.162665
-0.144979
-0.130074
-0.117023
-0.106405
-0.0992653
-0.626484
-0.538711
-0.51917
-0.46679
-0.439515
-0.401235
-0.371706
-0.339002
-0.309597
-0.280027
-0.252505
-0.226226
-0.202113
-0.179921
-0.160248
-0.142649
-0.127788
-0.114985
-0.104428
-0.0976292
-0.630616
-0.541061
-0.521333
-0.468095
-0.440437
-0.401536
-0.371516
-0.338264
-0.308379
-0.278368
-0.250489
-0.223945
-0.199654
-0.177389
-0.157692
-0.140185
-0.125385
-0.112813
-0.102356
-0.0958374
-0.634516
-0.543251
-0.523343
-0.469271
-0.44122
-0.401694
-0.371167
-0.337355
-0.306979
-0.276524
-0.248291
-0.221489
-0.197032
-0.174706
-0.154999
-0.137588
-0.122864
-0.110509
-0.100182
-0.0938978
-0.638169
-0.545271
-0.52519
-0.470308
-0.441856
-0.401698
-0.370648
-0.336264
-0.305388
-0.274489
-0.245907
-0.218857
-0.194248
-0.171871
-0.15217
-0.134859
-0.120227
-0.108076
-0.0979019
-0.0918159
-0.641558
-0.547108
-0.526862
-0.471195
-0.442332
-0.401536
-0.369949
-0.334983
-0.303601
-0.272258
-0.243333
-0.216048
-0.1913
-0.168888
-0.149205
-0.132001
-0.117471
-0.105514
-0.0955105
-0.0895962
-0.644666
-0.54875
-0.528346
-0.471921
-0.442637
-0.401199
-0.369058
-0.333504
-0.30161
-0.269826
-0.240569
-0.213061
-0.188191
-0.165755
-0.146106
-0.129012
-0.114597
-0.102825
-0.0930047
-0.0872416
-0.647479
-0.550185
-0.529628
-0.472472
-0.442758
-0.400675
-0.367967
-0.331817
-0.29941
-0.267191
-0.237612
-0.209896
-0.18492
-0.162476
-0.142873
-0.125897
-0.111605
-0.100012
-0.0903817
-0.0847544
-0.649979
-0.551401
-0.530698
-0.472839
-0.442684
-0.399952
-0.366665
-0.329915
-0.296993
-0.264348
-0.23446
-0.206554
-0.181489
-0.159051
-0.139509
-0.122655
-0.108496
-0.0970745
-0.0876393
-0.0821361
-0.652149
-0.552383
-0.53154
-0.473007
-0.442402
-0.399019
-0.365141
-0.327789
-0.294355
-0.261294
-0.231113
-0.203034
-0.177899
-0.155481
-0.136013
-0.119288
-0.105269
-0.0940147
-0.0847761
-0.0793877
-0.653973
-0.55312
-0.532142
-0.472965
-0.4419
-0.397865
-0.363385
-0.325433
-0.291491
-0.258027
-0.227569
-0.199337
-0.174151
-0.15177
-0.132389
-0.115799
-0.101925
-0.0908339
-0.0817908
-0.0765101
-0.655433
-0.553597
-0.532489
-0.4727
-0.441164
-0.396477
-0.361389
-0.322838
-0.288396
-0.254544
-0.22383
-0.195464
-0.170248
-0.147918
-0.128638
-0.112188
-0.0984661
-0.0875334
-0.0786829
-0.0735036
-0.656512
-0.553801
-0.532568
-0.472198
-0.440182
-0.394846
-0.359143
-0.319998
-0.285065
-0.250844
-0.219893
-0.191417
-0.16619
-0.143929
-0.124761
-0.108458
-0.094892
-0.0841146
-0.0754523
-0.070369
-0.657194
-0.553719
-0.532365
-0.471446
-0.438942
-0.392959
-0.356637
-0.316906
-0.281495
-0.246925
-0.215761
-0.187197
-0.161979
-0.139802
-0.12076
-0.104609
-0.0912046
-0.0805791
-0.0720993
-0.0671065
-0.657461
-0.553336
-0.531865
-0.470432
-0.43743
-0.390806
-0.353863
-0.313557
-0.277683
-0.242786
-0.211433
-0.182805
-0.157619
-0.135542
-0.116638
-0.100646
-0.0874051
-0.0769285
-0.0686246
-0.0637169
-0.657296
-0.55264
-0.531053
-0.469142
-0.435634
-0.388376
-0.350812
-0.309945
-0.273626
-0.238427
-0.206911
-0.178245
-0.15311
-0.131151
-0.112396
-0.0965686
-0.0834955
-0.0731646
-0.0650294
-0.0602008
-0.656683
-0.551615
-0.529917
-0.467562
-0.433541
-0.385659
-0.347477
-0.306066
-0.269322
-0.233847
-0.202196
-0.173517
-0.148457
-0.12663
-0.108037
-0.0923801
-0.0794775
-0.0692895
-0.0613154
-0.0565592
-0.655604
-0.550248
-0.52844
-0.46568
-0.431139
-0.382644
-0.343851
-0.301914
-0.264769
-0.229048
-0.19729
-0.168624
-0.14366
-0.121983
-0.103563
-0.0880825
-0.0753533
-0.0653052
-0.0574844
-0.0527932
-0.654043
-0.548525
-0.526609
-0.463481
-0.428416
-0.379322
-0.339925
-0.297486
-0.259966
-0.22403
-0.192195
-0.163569
-0.138723
-0.117211
-0.0989768
-0.0836784
-0.0711253
-0.061214
-0.0535391
-0.0489044
-0.651983
-0.546432
-0.524409
-0.460954
-0.42536
-0.375684
-0.335695
-0.292779
-0.254911
-0.218793
-0.186912
-0.158354
-0.133648
-0.112318
-0.0942805
-0.0791703
-0.066796
-0.0570186
-0.0494824
-0.0448946
-0.649408
-0.543955
-0.521827
-0.458085
-0.42196
-0.37172
-0.331154
-0.287789
-0.249606
-0.21334
-0.181444
-0.152982
-0.128438
-0.107307
-0.089477
-0.074561
-0.0623681
-0.0527218
-0.0453174
-0.0407659
-0.646303
-0.541082
-0.518848
-0.454861
-0.418205
-0.367424
-0.326298
-0.282516
-0.244049
-0.207672
-0.175795
-0.147456
-0.123097
-0.10218
-0.0845691
-0.0698533
-0.0578446
-0.0483266
-0.041048
-0.036521
-0.642653
-0.537797
-0.515458
-0.45127
-0.414085
-0.362787
-0.321121
-0.276957
-0.238242
-0.201791
-0.169966
-0.141779
-0.117627
-0.0969402
-0.0795597
-0.0650502
-0.0532287
-0.0438362
-0.0366783
-0.0321628
-0.638442
-0.534089
-0.511646
-0.447301
-0.409589
-0.357802
-0.31562
-0.27111
-0.232186
-0.1957
-0.16396
-0.135955
-0.11203
-0.0915908
-0.0744518
-0.0601548
-0.0485237
-0.0392542
-0.0322128
-0.0276947
-0.633656
-0.529945
-0.507396
-0.442942
-0.404708
-0.352463
-0.309791
-0.264977
-0.225881
-0.189401
-0.157781
-0.129986
-0.106312
-0.0861348
-0.0692485
-0.0551704
-0.0437331
-0.0345843
-0.0276564
-0.0231206
-0.628281
-0.525351
-0.502698
-0.438182
-0.399433
-0.346765
-0.303633
-0.258557
-0.219331
-0.182897
-0.151433
-0.123875
-0.100474
-0.0805756
-0.063953
-0.0501004
-0.0388607
-0.0298306
-0.0230143
-0.0184448
-0.622305
-0.520297
-0.497538
-0.433011
-0.393757
-0.340701
-0.297142
-0.251849
-0.212538
-0.176192
-0.144918
-0.117628
-0.0945205
-0.0749163
-0.0585687
-0.0449483
-0.0339103
-0.0249972
-0.018292
-0.013672
-0.615714
-0.51477
-0.491906
-0.427419
-0.387671
-0.334269
-0.290319
-0.244857
-0.205504
-0.169289
-0.138241
-0.111246
-0.0884546
-0.0691606
-0.053099
-0.0397177
-0.0288859
-0.0200885
-0.0134952
-0.00880751
-0.608497
-0.508759
-0.48579
-0.421396
-0.38117
-0.327465
-0.283162
-0.237581
-0.198232
-0.162192
-0.131405
-0.104734
-0.0822798
-0.0633117
-0.0475474
-0.0344124
-0.0237916
-0.0151091
-0.00862998
-0.00385691
-0.600643
-0.502253
-0.47918
-0.414934
-0.374247
-0.320285
-0.275672
-0.230024
-0.190726
-0.154905
-0.124414
-0.0980963
-0.076
-0.0573734
-0.0419175
-0.0290362
-0.0186317
-0.010064
-0.00370239
0.00117374
-0.592144
-0.495245
-0.472068
-0.408026
-0.366899
-0.312729
-0.267849
-0.222189
-0.18299
-0.147432
-0.117274
-0.0913358
-0.0696187
-0.0513491
-0.036213
-0.023593
-0.0134104
-0.00495786
0.00128137
0.00627803
-0.582994
-0.487728
-0.464448
-0.400668
-0.359122
-0.304797
-0.259697
-0.214079
-0.175029
-0.139777
-0.109986
-0.0844567
-0.0631395
-0.0452425
-0.0304374
-0.0180868
-0.00813209
0.000204151
0.0063149
0.0114493
-0.573174
-0.479684
-0.456304
-0.392847
-0.350909
-0.296484
-0.251214
-0.205697
-0.166846
-0.131946
-0.102557
-0.0774636
-0.0565668
-0.0390576
-0.024595
-0.0125218
-0.00280143
0.00541685
0.0113911
0.0166806
-0.562681
-0.471109
-0.447631
-0.384561
-0.342258
-0.287793
-0.242405
-0.197047
-0.158446
-0.123942
-0.0949911
-0.0703604
-0.0499043
-0.0327984
-0.0186895
-0.00690224
0.00257714
0.0106753
0.0165034
0.0219648
-0.551511
-0.461998
-0.438426
-0.375805
-0.33317
-0.278726
-0.233274
-0.188136
-0.149835
-0.115772
-0.0872925
-0.0631516
-0.0431561
-0.0264685
-0.0127249
-0.00123214
0.00799899
0.0159738
0.0216476
0.0272926
-0.539658
-0.452344
-0.428682
-0.366577
-0.323644
-0.269284
-0.223825
-0.178967
-0.141018
-0.10744
-0.0794662
-0.0558416
-0.0363264
-0.0200721
-0.00670507
0.00448427
0.0134596
0.0213057
0.026817
0.0326575
-0.527119
-0.442143
-0.418396
-0.356874
-0.31368
-0.25947
-0.214062
-0.169547
-0.132001
-0.0989516
-0.0715173
-0.0484347
-0.0294191
-0.0136131
-0.00063413
0.0102424
0.0189548
0.0266668
0.0320048
0.0380514
-0.51389
-0.431389
-0.407563
-0.346694
-0.303279
-0.249288
-0.20399
-0.159881
-0.12279
-0.0903128
-0.0634506
-0.0409357
-0.0224387
-0.00709565
0.00548383
0.016038
0.0244798
0.0320517
0.0372052
0.0434663
-0.499971
-0.420081
-0.396184
-0.336038
-0.292445
-0.238743
-0.193617
-0.149976
-0.113391
-0.0815291
-0.0552715
-0.0333491
-0.0153893
-0.000523959
0.0116449
0.0218671
0.03003
0.037455
0.0424125
0.0488941
-0.485362
-0.408215
-0.384255
-0.324905
-0.281179
-0.22784
-0.182948
-0.139839
-0.103811
-0.0726064
-0.0469851
-0.0256796
-0.00827539
0.00609789
0.0178448
0.0277253
0.0356011
0.0428715
0.0476214
0.0543266
-0.470063
-0.395792
-0.371778
-0.313299
-0.269488
-0.216584
-0.17199
-0.129477
-0.0940558
-0.0635508
-0.0385967
-0.0179321
-0.00110141
0.0127657
0.0240796
0.0336083
0.0411887
0.0482959
0.0528268
0.0597558
-0.454078
-0.38281
-0.358754
-0.30122
-0.257374
-0.204983
-0.160751
-0.118897
-0.0841337
-0.0543684
-0.0301118
-0.0101117
0.00612837
0.0194754
0.030345
0.0395119
0.0467884
0.0537231
0.0580237
0.0651737
-0.437409
-0.369271
-0.345185
-0.288674
-0.244846
-0.193044
-0.14924
-0.108107
-0.0740512
-0.0450656
-0.0215365
-0.00222275
0.0134093
0.0262225
0.0366369
0.045432
0.0523962
0.0591483
0.0632077
0.0705726
-0.420064
-0.355178
-0.331075
-0.275665
-0.23191
-0.180776
-0.137464
-0.0971163
-0.0638159
-0.035649
-0.0128758
0.00572931
0.0207368
0.0330028
0.0429514
0.0513645
0.0580079
0.0645666
0.0683745
0.0759448
-0.402047
-0.340534
-0.31643
-0.262199
-0.218574
-0.168186
-0.125434
-0.0859325
-0.0534353
-0.0261253
-0.00413569
0.0137394
0.0281064
0.0398121
0.0492842
0.0573051
0.0636194
0.0699734
0.07352
0.081283
-0.383368
-0.325344
-0.301256
-0.248283
-0.204848
-0.155285
-0.113158
-0.0745646
-0.0429175
-0.016501
0.00467797
0.0218025
0.0355133
0.0466461
0.0556314
0.06325
0.069227
0.0753642
0.0786407
0.0865802
-0.364037
-0.309614
-0.285559
-0.233926
-0.19074
-0.142083
-0.100647
-0.0630218
-0.0322702
-0.00678307
0.0135592
0.0299133
0.042953
0.0535004
0.0619889
0.0691951
0.0748268
0.0807348
0.0837332
0.0918297
-0.344063
-0.293352
-0.26935
-0.219137
-0.176262
-0.128591
-0.0879108
-0.0513135
-0.0215017
0.00302144
0.022502
0.0380666
0.0504206
0.0603708
0.0683527
0.0751367
0.0804151
0.0860811
0.0887943
0.0970251
-0.32346
-0.276566
-0.252637
-0.203926
-0.161426
-0.11482
-0.0749612
-0.0394493
-0.0106205
0.0129054
0.0315003
0.046257
0.0579115
0.0672529
0.0747187
0.0810708
0.0859885
0.0913992
0.0938214
0.102161
-0.302241
-0.259265
-0.235433
-0.188305
-0.146244
-0.100783
-0.0618091
-0.0274392
0.000365052
0.0228616
0.0405478
0.0544792
0.0654208
0.0741425
0.0810831
0.0869939
0.0915434
0.0966854
0.0988119
0.107231
-0.280423
-0.241462
-0.21775
-0.172286
-0.130729
-0.0864916
-0.0484662
-0.0152933
0.0114461
0.0328828
0.0496382
0.0627277
0.0729439
0.0810352
0.087442
0.0929021
0.0970767
0.101936
0.103763
0.112232
-0.258022
-0.223169
-0.199601
-0.155882
-0.114895
-0.0719594
-0.0349447
-0.00302198
0.0226139
0.0429613
0.0587653
0.070997
0.0804758
0.0879268
0.0937914
0.098792
0.102585
0.107149
0.108674
0.117157
-0.235055
-0.204399
-0.181002
-0.139108
-0.0987578
-0.0572005
-0.0212568
0.00936418
0.0338595
0.0530898
0.0679225
0.0792816
0.0880117
0.0948129
0.100127
0.10466
0.108065
0.11232
0.113542
0.122005
-0.211544
-0.185167
-0.161968
-0.12198
-0.0823319
-0.0422288
-0.00741534
0.0218544
0.0451736
0.0632606
0.0771035
0.087576
0.0955468
0.101689
0.106446
0.110503
0.113515
0.117446
0.118366
0.12677
-0.187509
-0.16549
-0.142518
-0.104513
-0.0656343
-0.0270587
0.00656672
0.0344376
0.0565471
0.0734659
0.0863016
0.0958745
0.103076
0.108552
0.112745
0.116317
0.11893
0.122525
0.123143
0.13145
-0.162972
-0.145385
-0.12267
-0.086724
-0.0486816
-0.0117055
0.0206761
0.0471027
0.0679707
0.0836979
0.0955103
0.104172
0.110595
0.115396
0.119018
0.1221
0.124309
0.127555
0.127874
0.136043
-0.137958
-0.12487
-0.102441
-0.0686336
-0.0314914
0.0038153
0.0348992
0.0598384
0.0794347
0.0939487
0.104723
0.112461
0.118098
0.122217
0.125263
0.127847
0.129648
0.132533
0.132557
0.140546
-0.112491
-0.103966
-0.0818552
-0.0502587
-0.0140819
0.0194878
0.0492223
0.0726332
0.0909297
0.10421
0.113932
0.120738
0.125581
0.129012
0.131477
0.133556
0.134946
0.137456
0.137191
0.144957
-0.0865978
-0.082695
-0.060933
-0.0316192
0.00352808
0.0352959
0.0636313
0.0854755
0.102446
0.114475
0.123133
0.128997
0.133039
0.135776
0.137654
0.139224
0.1402
0.142323
0.141776
0.149275
-0.0603034
-0.0610796
-0.0396972
-0.0127358
0.0213194
0.0512228
0.0781121
0.0983535
0.113974
0.124734
0.132316
0.13723
0.140466
0.142505
0.143792
0.144848
0.145406
0.147132
0.146311
0.153499
-0.0336409
-0.0391405
-0.0181715
0.00637028
0.0392723
0.0672517
0.0926503
0.111255
0.125503
0.13498
0.141477
0.145434
0.147858
0.149195
0.149888
0.150424
0.150564
0.151882
0.150796
0.157626
-0.00664275
-0.0168999
0.00361953
0.0256771
0.0573666
0.0833656
0.107231
0.124169
0.137025
0.145205
0.150607
0.153602
0.15521
0.15584
0.155937
0.155951
0.15567
0.156569
0.155231
0.161657
0.0206646
0.00561317
0.0256503
0.0451623
0.0755816
0.0995468
0.12184
0.137083
0.148528
0.155399
0.1597
0.161728
0.162517
0.162438
0.161936
0.161425
0.160722
0.161194
0.159617
0.16559
0.048249
0.0283723
0.0478946
0.0648026
0.0938964
0.115778
0.136462
0.149985
0.160003
0.165556
0.16875
0.169806
0.169774
0.168985
0.167882
0.166843
0.165718
0.165753
0.163953
0.169425
0.0760764
0.0513509
0.0703253
0.0845743
0.11229
0.132041
0.151083
0.162862
0.171439
0.175666
0.177748
0.177831
0.176975
0.175475
0.173771
0.172202
0.170656
0.170247
0.168241
0.173159
0.104113
0.0745207
0.0929146
0.104453
0.130739
0.148318
0.165687
0.175702
0.182828
0.185721
0.186689
0.185796
0.184117
0.181905
0.179599
0.177501
0.175534
0.174672
0.172482
0.176791
0.132323
0.0978529
0.115634
0.124415
0.149224
0.164591
0.180259
0.188494
0.194158
0.195714
0.195564
0.193697
0.191195
0.188271
0.185364
0.182735
0.180349
0.179029
0.176678
0.180318
0.160671
0.121318
0.138455
0.144435
0.167722
0.180842
0.194784
0.201224
0.205419
0.205635
0.204368
0.201526
0.198202
0.194568
0.191061
0.187903
0.185098
0.183316
0.180833
0.183749
0.189122
0.144885
0.161347
0.164487
0.18621
0.197052
0.209247
0.213881
0.216602
0.215476
0.213094
0.209279
0.205135
0.200793
0.196687
0.193001
0.18978
0.187532
0.184964
0.187106
0.217638
0.168524
0.184281
0.184545
0.204665
0.213203
0.223632
0.226453
0.227696
0.22523
0.221733
0.216949
0.211988
0.206941
0.202239
0.198028
0.194391
0.191678
0.189096
0.190327
0.246174
0.192199
0.207225
0.204584
0.223066
0.229276
0.237925
0.238926
0.238691
0.234887
0.230281
0.224531
0.218758
0.213009
0.207714
0.20298
0.198927
0.195756
0.193199
0.193054
0.274677
0.215871
0.230142
0.224575
0.241389
0.245254
0.25211
0.251289
0.249577
0.244439
0.238728
0.232019
0.225437
0.218992
0.213107
0.207855
0.203387
0.199766
0.197152
0.194942
0.303152
0.239528
0.253015
0.244496
0.259612
0.261117
0.266173
0.263529
0.260344
0.253879
0.24707
0.239407
0.232024
0.224887
0.218416
0.212649
0.207766
0.203701
0.201041
0.197461
0.331545
0.26313
0.275807
0.264321
0.277713
0.276847
0.280097
0.275635
0.270982
0.263198
0.255298
0.246689
0.238511
0.230689
0.223637
0.21736
0.212064
0.207561
0.204794
0.200361
0.359809
0.28664
0.298484
0.28402
0.295669
0.292427
0.293869
0.287594
0.281482
0.272388
0.263406
0.253861
0.244895
0.236394
0.228767
0.221986
0.216276
0.211346
0.208406
0.203302
0.387904
0.310024
0.321015
0.303569
0.313456
0.307838
0.307473
0.299395
0.291833
0.28144
0.271388
0.260915
0.251171
0.241999
0.233803
0.226523
0.220401
0.215057
0.211895
0.20622
0.415791
0.333248
0.343369
0.322939
0.331053
0.323061
0.320895
0.311025
0.302025
0.290347
0.279236
0.267848
0.257334
0.2475
0.238741
0.23097
0.224438
0.21869
0.215274
0.209122
0.443431
0.35628
0.365513
0.342106
0.348437
0.338079
0.334119
0.322472
0.31205
0.299101
0.286945
0.274652
0.26338
0.252893
0.243579
0.235324
0.228384
0.222244
0.218548
0.212001
0.470784
0.379086
0.387417
0.361043
0.365586
0.352875
0.347132
0.333726
0.321897
0.307695
0.294507
0.281324
0.269304
0.258174
0.248314
0.239581
0.232238
0.225718
0.22172
0.214844
0.49781
0.40163
0.409048
0.379724
0.382479
0.36743
0.35992
0.344775
0.331557
0.316119
0.301916
0.287857
0.275102
0.263339
0.252941
0.243741
0.235997
0.22911
0.224796
0.217644
0.524468
0.42388
0.430375
0.398123
0.399092
0.381728
0.372468
0.355607
0.34102
0.324367
0.309167
0.294246
0.280769
0.268386
0.25746
0.2478
0.239662
0.232418
0.227779
0.220395
0.550721
0.445802
0.451368
0.416214
0.415406
0.395751
0.384762
0.366211
0.350279
0.332432
0.316252
0.300486
0.286301
0.27331
0.261865
0.251756
0.243229
0.23564
0.23067
0.22309
0.576528
0.467362
0.471994
0.433973
0.431399
0.409483
0.396789
0.376576
0.359323
0.340305
0.323165
0.306573
0.291694
0.278107
0.266156
0.255607
0.246698
0.238776
0.233471
0.225724
0.601851
0.488528
0.492225
0.451374
0.44705
0.422907
0.408535
0.386692
0.368144
0.34798
0.329901
0.3125
0.296944
0.282775
0.270328
0.25935
0.250068
0.241822
0.236185
0.228295
0.626652
0.509266
0.51203
0.468393
0.462338
0.436007
0.419988
0.396548
0.376733
0.355449
0.336453
0.318263
0.302046
0.28731
0.274379
0.262983
0.253335
0.244778
0.23881
0.230798
0.650894
0.529546
0.531379
0.485006
0.477245
0.448768
0.431134
0.406134
0.385082
0.362706
0.342816
0.323857
0.306996
0.291708
0.278306
0.266504
0.2565
0.247642
0.241349
0.23323
0.674539
0.549334
0.550245
0.50119
0.491751
0.461173
0.441961
0.415439
0.393182
0.369743
0.348985
0.329278
0.311792
0.295966
0.282107
0.269911
0.25956
0.250412
0.243801
0.235589
0.697552
0.568601
0.568597
0.516922
0.505836
0.473208
0.452457
0.424454
0.401026
0.376555
0.354953
0.334521
0.316427
0.300082
0.28578
0.273201
0.262513
0.253087
0.246166
0.237873
0.719896
0.587315
0.58641
0.532179
0.519482
0.484858
0.462611
0.43317
0.408606
0.383134
0.360715
0.339581
0.3209
0.304051
0.28932
0.276372
0.265359
0.255665
0.248444
0.240078
0.741538
0.605448
0.603656
0.546939
0.532672
0.49611
0.47241
0.441577
0.415914
0.389475
0.366266
0.344454
0.325207
0.307872
0.292726
0.279422
0.268095
0.258145
0.250634
0.242203
0.762444
0.622969
0.620309
0.561182
0.545387
0.506949
0.481843
0.449666
0.422943
0.395571
0.371602
0.349136
0.329343
0.31154
0.295996
0.28235
0.270721
0.260524
0.252734
0.244246
0.782582
0.639852
0.636344
0.574887
0.557612
0.517362
0.490901
0.457429
0.429685
0.401417
0.376716
0.353624
0.333306
0.315054
0.299127
0.285153
0.273233
0.262803
0.254746
0.246205
0.801919
0.656069
0.651736
0.588034
0.569329
0.527337
0.499572
0.464857
0.436134
0.407007
0.381606
0.357912
0.337092
0.31841
0.302117
0.287829
0.275632
0.264978
0.256667
0.248079
0.820426
0.671594
0.666463
0.600605
0.580525
0.536861
0.507846
0.471943
0.442284
0.412335
0.386265
0.361997
0.340698
0.321605
0.304963
0.290376
0.277915
0.267049
0.258496
0.249865
0.838074
0.686402
0.680501
0.612582
0.591183
0.545923
0.515715
0.478678
0.448127
0.417397
0.39069
0.365877
0.344121
0.324639
0.307664
0.292792
0.28008
0.269014
0.260232
0.251562
0.854834
0.700469
0.693829
0.623947
0.601289
0.554511
0.523169
0.485056
0.453659
0.422188
0.394877
0.369546
0.347358
0.327506
0.310217
0.295077
0.282127
0.270872
0.261875
0.253169
0.87068
0.713772
0.706426
0.634683
0.610831
0.562615
0.5302
0.49107
0.458874
0.426702
0.398822
0.373002
0.350407
0.330207
0.312621
0.297227
0.284053
0.272621
0.263422
0.254684
0.885588
0.726289
0.718274
0.644776
0.619795
0.570225
0.5368
0.496713
0.463765
0.430936
0.402521
0.376243
0.353265
0.332737
0.314873
0.299241
0.285859
0.27426
0.264873
0.256105
0.899533
0.738001
0.729354
0.654211
0.62817
0.577331
0.54296
0.501979
0.468329
0.434885
0.40597
0.379264
0.355929
0.335096
0.316972
0.301119
0.287541
0.275788
0.266227
0.257431
0.912493
0.748887
0.739648
0.662974
0.635945
0.583925
0.548674
0.506862
0.47256
0.438546
0.409167
0.382063
0.358397
0.337281
0.318917
0.302858
0.289099
0.277204
0.267481
0.258661
0.924447
0.758931
0.749142
0.671052
0.643109
0.589999
0.553936
0.511357
0.476454
0.441915
0.412108
0.384639
0.360667
0.33929
0.320704
0.304457
0.290531
0.278506
0.268636
0.259793
0.935376
0.768115
0.75782
0.678433
0.649652
0.595545
0.558739
0.51546
0.480007
0.444988
0.414791
0.386988
0.362737
0.341123
0.322334
0.305914
0.291838