2 	-3.98637 	-1.38722e-17 	-0.0598541
2 	-3.9593 	-1.34474e-17 	-0.0598719
2 	-3.93259 	-1.63192e-17 	-0.0599112
2 	-3.90625 	-1.64159e-17 	-0.0599667
2 	-3.88027 	-1.18294e-17 	-0.0600372
2 	-3.85464 	-8.45773e-18 	-0.0601223
2 	-3.82936 	-9.07645e-18 	-0.0602217
2 	-3.80442 	-7.61403e-18 	-0.0603346
2 	-3.77982 	-3.37659e-18 	-0.0604606
2 	-3.75555 	-8.74385e-19 	-0.060599
2 	-3.73161 	-8.01323e-19 	-0.0607494
2 	-3.7082 	1.69921e-18 	-0.0609113
2 	-3.69648 	4.16334e-18 	-0.0604591
2 	-3.6847 	7.28584e-18 	-0.0606292
2 	-3.66172 	7.28584e-18 	-0.0608095
2 	-3.63904 	7.28584e-18 	-0.0609994
2 	-3.61667 	5.89806e-18 	-0.0611986
2 	-3.5946 	4.85723e-18 	-0.0614065
2 	-3.57282 	6.93889e-18 	-0.0616229
2 	-3.55134 	5.89806e-18 	-0.0618473
2 	-3.53015 	4.51028e-18 	-0.0620793
2 	-3.50924 	1.38778e-18 	-0.0623186
2 	-3.48862 	1.38778e-18 	-0.0625648
2 	-3.46827 	2.42861e-18 	-0.0628176
2 	-3.44819 	3.46945e-18 	-0.0630765
2 	-3.42838 	1.38778e-18 	-0.0633414
2 	-3.40884 	-3.46945e-18 	-0.0636117
2 	-3.38955 	-3.46945e-18 	-0.0638872
2 	-3.37053 	1.38778e-18 	-0.0641677
2 	-3.35176 	1.73472e-18 	-0.0644527
2 	-3.33324 	-1.38778e-18 	-0.064742
2 	-3.31497 	-3.85186e-34 	-0.0650352
2 	-3.29694 	1.73472e-18 	-0.0653321
2 	-3.27915 	-3.85186e-34 	-0.0656323
2 	-3.2616 	-4.45864e-18 	-0.0659357
2 	-3.24428 	-8.51882e-18 	-0.0662418
2 	-3.2272 	-1.02592e-17 	-0.0665505
2 	-3.21034 	-1.32795e-17 	-0.0668613
2 	-3.1937 	-1.54329e-17 	-0.0671741
2 	-3.17729 	-1.43342e-17 	-0.0674887
2 	-3.16109 	-1.68789e-17 	-0.0678046
2 	-3.14511 	-2.02048e-17 	-0.0681218
2 	-3.12933 	-2.11892e-17 	-0.06844
2 	-3.11377 	-2.13068e-17 	-0.0687589
2 	-3.09842 	-1.96902e-17 	-0.0690783
2 	-3.08326 	-1.8768e-17 	-0.069398
2 	-3.06831 	-2.13157e-17 	-0.0697178
2 	-3.05356 	-2.68129e-17 	-0.0700373
2 	-3.039 	-2.88411e-17 	-0.0703565
2 	-3.02463 	-2.89616e-17 	-0.070675
2 	-3.01045 	-3.48072e-17 	-0.0709926
2 	-2.99646 	-4.06533e-17 	-0.0713093
2 	-2.98265 	-4.16426e-17 	-0.0716247
2 	-2.96902 	-3.8469e-17 	-0.0719385
2 	-2.95557 	-3.84184e-17 	-0.07225
2 	-2.9423 	-3.9756e-17 	-0.0725608
2 	-2.9292 	-3.79716e-17 	-0.072875
2 	-2.91628 	-3.65346e-17 	-0.0731838
2 	-2.90352 	-3.64859e-17 	-0.0734451
2 	-2.89297 	-3.64454e-17 	-0.073686
2 	-2.88672 	-3.36536e-17 	-0.072896
2 	-2.87849 	-2.91434e-17 	-0.0734604
2 	-2.87095 	-2.63678e-17 	-0.0844781
2 	-2.81118 	-2.32453e-17 	-0.0855474
2 	-2.69742 	-1.97029e-17 	-0.0864251
2 	-2.58953 	-2.04245e-17 	-0.0870914
2 	-2.53345 	-2.16342e-17 	-0.0875213
2 	-2.48346 	-1.98717e-17 	-0.0951554
2 	-2.38935 	-1.82922e-17 	-0.0965576
2 	-2.29619 	-1.99055e-17 	-0.0979569
2 	-2.22264 	-2.27769e-17 	-0.0993677
2 	-2.1791 	-2.42861e-17 	-0.1141
2 	-2.12186 	-2.46331e-17 	-0.11487
2 	-2.04006 	-2.82337e-17 	-0.115508
2 	-1.96148 	-3.16061e-17 	-0.116028
2 	-1.89177 	-3.21688e-17 	-0.116446
2 	-1.85468 	-3.08781e-17 	-0.136216
2 	-1.81301 	-2.77556e-17 	-0.137163
2 	-1.7427 	-2.81025e-17 	-0.137999
2 	-1.67476 	-2.89302e-17 	-0.138717
2 	-1.60902 	-3.1585e-17 	-0.139317
2 	-1.54723 	-3.2492e-17 	-0.139795
2 	-1.51588 	-2.84495e-17 	-0.156632
2 	-1.48352 	-3.01842e-17 	-0.156762
2 	-1.42351 	-3.33067e-17 	-0.156768
2 	-1.36514 	-3.28008e-17 	-0.156652
2 	-1.30832 	-3.11877e-17 	-0.156416
2 	-1.25294 	-3.19659e-17 	-0.156062
2 	-1.19891 	-3.08905e-17 	-0.155592
2 	-1.15928 	-2.71504e-17 	-0.155012
2 	-1.13319 	-2.81043e-17 	-0.176339
2 	-1.09454 	-3.1572e-17 	-0.175648
2 	-1.04404 	-3.33067e-17 	-0.174856
2 	-0.994562 	-3.33067e-17 	-0.17397
2 	-0.946043 	-3.78487e-17 	-0.172999
2 	-0.898417 	-4.38982e-17 	-0.17195
2 	-0.851625 	-4.45796e-17 	-0.170833
2 	-0.805608 	-4.46706e-17 	-0.169657
2 	-0.760314 	-4.75531e-17 	-0.168433
2 	-0.715691 	-5.01041e-17 	-0.167172
2 	-0.689696 	-5.16085e-17 	-0.165885
2 	-0.667846 	-5.54071e-17 	-0.185295
2 	-0.628268 	-6.00214e-17 	-0.184077
2 	-0.585378 	-6.00214e-17 	-0.182869
2 	-0.542977 	-5.51642e-17 	-0.181683
2 	-0.501027 	-5.06539e-17 	-0.180529
2 	-0.459487 	-5.37764e-17 	-0.179418
2 	-0.418321 	-5.6205e-17 	-0.178358
2 	-0.377491 	-5.75928e-17 	-0.17736
2 	-0.336963 	-6.19106e-17 	-0.176433
2 	-0.296702 	-6.34854e-17 	-0.175585
2 	-0.256676 	-6.30663e-17 	-0.174824
2 	-0.21685 	-5.94586e-17 	-0.174158
2 	-0.177194 	-5.74896e-17 	-0.173593
2 	-0.137675 	-5.76146e-17 	-0.173134
2 	-0.0982637 	-5.79253e-17 	-0.172786
2 	-0.0589279 	-5.98093e-17 	-0.172552
2 	-0.0196376 	-6.17922e-17 	-0.172434
2 	0.0196376 	-6.10983e-17 	-0.172434
2 	0.0589279 	-5.91154e-17 	-0.172552
2 	0.0982637 	-5.82722e-17 	-0.172786
2 	0.137675 	-5.65738e-17 	-0.173134
2 	0.177194 	-5.39334e-17 	-0.173593
2 	0.21685 	-5.05681e-17 	-0.174158
2 	0.256676 	-4.56974e-17 	-0.174824
2 	0.296702 	-4.35768e-17 	-0.175584
2 	0.336963 	-4.25874e-17 	-0.176432
2 	0.377491 	-3.95517e-17 	-0.177359
2 	0.418321 	-4.12864e-17 	-0.178357
2 	0.459487 	-4.33681e-17 	-0.179417
2 	0.501027 	-4.23273e-17 	-0.180529
2 	0.542977 	-4.23273e-17 	-0.181682
2 	0.585378 	-4.54498e-17 	-0.182868
2 	0.628268 	-4.51028e-17 	-0.184076
2 	0.667846 	-4.45129e-17 	-0.185294
2 	0.689696 	-4.97349e-17 	-0.165886
2 	0.715691 	-5.18388e-17 	-0.167173
2 	0.760314 	-5.13695e-17 	-0.168434
2 	0.805608 	-5.23034e-17 	-0.169658
2 	0.851625 	-5.25594e-17 	-0.170834
2 	0.898417 	-4.87988e-17 	-0.171951
2 	0.946043 	-4.4831e-17 	-0.173001
2 	0.994562 	-4.16334e-17 	-0.173972
2 	1.04404 	-3.92048e-17 	-0.174858
2 	1.09454 	-3.71231e-17 	-0.17565
2 	1.13319 	-3.53649e-17 	-0.176342
2 	1.15928 	-3.4411e-17 	-0.155011
2 	1.19891 	-3.21048e-17 	-0.155591
2 	1.25294 	-3.09251e-17 	-0.15606
2 	1.30832 	-3.29332e-17 	-0.156415
2 	1.36514 	-3.26382e-17 	-0.156651
2 	1.42351 	-3.22659e-17 	-0.156767
2 	1.48352 	-3.50414e-17 	-0.15676
2 	1.51588 	-3.76443e-17 	-0.15663
2 	1.54723 	-4.0299e-17 	-0.139807
2 	1.60902 	-4.05188e-17 	-0.13933
2 	1.67476 	-4.09866e-17 	-0.138732
2 	1.7427 	-4.26742e-17 	-0.138014
2 	1.81301 	-4.12864e-17 	-0.13718
2 	1.85468 	-3.93275e-17 	-0.136234
2 	1.89177 	-3.81897e-17 	-0.116433
2 	1.96148 	-3.77643e-17 	-0.116013
2 	2.04006 	-3.75144e-17 	-0.115491
2 	2.12186 	-3.85109e-17 	-0.114852
2 	2.1791 	-4.07851e-17 	-0.114081
2 	2.22264 	-4.30922e-17 	-0.0994368
2 	2.29619 	-4.85284e-17 	-0.0980289
2 	2.38935 	-5.62827e-17 	-0.0966319
2 	2.48346 	-5.57623e-17 	-0.0952315
2 	2.53345 	-5.09328e-17 	-0.0874161
2 	2.58953 	-5.16496e-17 	-0.086982
2 	2.69742 	-5.30096e-17 	-0.0863131
2 	2.81118 	-5.16948e-17 	-0.0854345
2 	2.87095 	-5.03625e-17 	-0.0843656
2 	2.87954 	-5.3485e-17 	-0.0734772
2 	2.88777 	-5.80119e-17 	-0.0728297
2 	2.89506 	-5.97708e-17 	-0.0736194
2 	2.90871 	-6.21796e-17 	-0.0733363
2 	2.92347 	-6.53584e-17 	-0.073034
2 	2.93835 	-6.02108e-17 	-0.0726805
2 	2.95336 	-5.61042e-17 	-0.0723226
2 	2.96851 	-5.92837e-17 	-0.0719705
2 	2.98378 	-5.83001e-17 	-0.0716194
2 	2.99918 	-5.66229e-17 	-0.071268
2 	3.01472 	-5.73744e-17 	-0.0709168
2 	3.03038 	-5.63915e-17 	-0.0705665
2 	3.04618 	-5.62761e-17 	-0.0702173
2 	3.06212 	-6.10182e-17 	-0.0698694
2 	3.0782 	-6.31585e-17 	-0.0695232
2 	3.09441 	-6.04417e-17 	-0.0691788
2 	3.11076 	-5.75517e-17 	-0.0688366
2 	3.12725 	-5.70905e-17 	-0.0684967
2 	3.14389 	-5.85378e-17 	-0.0681595
2 	3.16066 	-5.83373e-17 	-0.0678251
2 	3.17758 	-5.63155e-17 	-0.067494
2 	3.19465 	-5.16919e-17 	-0.0671662
2 	3.21186 	-5.03645e-17 	-0.0668421
2 	3.22922 	-5.14659e-17 	-0.0665218
2 	3.24673 	-4.85886e-17 	-0.0662057
2 	3.26439 	-4.56087e-17 	-0.0658939
2 	3.2822 	-4.57967e-17 	-0.0655866
2 	3.30016 	-4.82253e-17 	-0.0652841
2 	3.31828 	-5.13478e-17 	-0.0649866
2 	3.33655 	-5.44703e-17 	-0.0646943
2 	3.35498 	-5.55112e-17 	-0.0644074
2 	3.37357 	-5.48173e-17 	-0.0641261
2 	3.39232 	-5.51642e-17 	-0.0638507
2 	3.41123 	-5.23886e-17 	-0.0635813
2 	3.4303 	-4.57967e-17 	-0.0633181
2 	3.44954 	-4.3715e-17 	-0.0630614
2 	3.46894 	-4.71845e-17 	-0.0628114
2 	3.48851 	-4.61436e-17 	-0.0625683
2 	3.50825 	-4.33681e-17 	-0.0623323
2 	3.52815 	-3.85109e-17 	-0.0621036
2 	3.54823 	-3.50414e-17 	-0.0618824
2 	3.56848 	-3.85109e-17 	-0.061669
2 	3.5889 	-4.47559e-17 	-0.0614635
2 	3.6095 	-4.89192e-17 	-0.0612662
2 	3.63028 	-4.57967e-17 	-0.0610773
2 	3.65123 	-4.30211e-17 	-0.0608971
2 	3.67237 	-4.75314e-17 	-0.0607257
2 	3.68983 	-5.18893e-17 	-0.0605633
2 	3.70053 	-4.87787e-17 	-0.0610173
2 	3.71517 	-4.48129e-17 	-0.060862
2 	3.73685 	-4.34916e-17 	-0.0607166
2 	3.75872 	-4.14766e-17 	-0.0605814
2 	3.78077 	-4.11965e-17 	-0.0604567
2 	3.80302 	-4.02226e-17 	-0.0603427
2 	3.82545 	-3.68204e-17 	-0.0602397
2 	3.84809 	-3.65408e-17 	-0.0601479
2 	3.87091 	-4.25064e-17 	-0.0600677
2 	3.89394 	-5.00335e-17 	-0.0599995
2 	3.91716 	-5.16626e-17 	-0.0599433
2 	3.94058 	-4.86082e-17 	-0.0598992
2 	3.96421 	-4.59009e-17 	-0.0598681
2 	3.98803 	-4.62829e-17 	-0.0598544
