/*--------------------------------*- C++ -*----------------------------------*\
  =========                 |
  \\      /  F ield         | OpenFOAM: The Open Source CFD Toolbox
   \\    /   O peration     | Website:  https://openfoam.org
    \\  /    A nd           | Version:  7
     \\/     M anipulation  |
\*---------------------------------------------------------------------------*/
FoamFile
{
    version     2.0;
    format      ascii;
    class       volScalarField;
    location    "10";
    object      p;
}
// * * * * * * * * * * * * * * * * * * * * * * * * * * * * * * * * * * * * * //

dimensions      [0 2 -2 0 0 0 0];

internalField   nonuniform List<scalar> 
2625
(
0.189489
0.189308
0.188405
0.186948
0.185039
0.182725
0.180057
0.177085
0.173851
0.170396
0.166757
0.162967
0.15906
0.155063
0.151004
0.146908
0.142798
0.138692
0.13461
0.130567
0.126578
0.122654
0.118806
0.115042
0.11137
0.107795
0.104322
0.100954
0.0976928
0.0945405
0.18966
0.189486
0.18858
0.187126
0.185219
0.182907
0.180242
0.177273
0.174041
0.170588
0.166949
0.16316
0.159251
0.155253
0.151192
0.147093
0.142978
0.138868
0.13478
0.130731
0.126736
0.122805
0.118949
0.115178
0.111498
0.107915
0.104433
0.101057
0.0977898
0.0946304
0.189994
0.189824
0.188918
0.187468
0.185566
0.18326
0.180601
0.177636
0.174408
0.170957
0.167321
0.163532
0.159622
0.155621
0.151555
0.14745
0.143327
0.139208
0.13511
0.13105
0.127041
0.123097
0.119227
0.115441
0.111745
0.108147
0.104649
0.101257
0.0979741
0.0947976
0.190479
0.190312
0.189407
0.187964
0.18607
0.183771
0.181119
0.178161
0.17494
0.171494
0.16786
0.164071
0.16016
0.156155
0.152083
0.147969
0.143835
0.139703
0.13559
0.131513
0.127486
0.123522
0.119632
0.115824
0.112106
0.108485
0.104964
0.101549
0.0982439
0.0950437
0.191103
0.190939
0.190037
0.188602
0.186717
0.184429
0.181787
0.178839
0.175626
0.172186
0.168556
0.164768
0.160855
0.156845
0.152765
0.148641
0.144493
0.140344
0.136213
0.132114
0.128064
0.124075
0.120158
0.116322
0.112576
0.108925
0.105374
0.101929
0.098595
0.0953639
0.191854
0.191693
0.190796
0.189371
0.187498
0.185222
0.182594
0.179658
0.176455
0.173023
0.169398
0.165613
0.161698
0.157683
0.153594
0.149457
0.145293
0.141125
0.13697
0.132846
0.128768
0.124749
0.1208
0.11693
0.113149
0.109462
0.105875
0.102393
0.0990247
0.0957564
0.192722
0.192565
0.191673
0.19026
0.188402
0.186141
0.183528
0.180607
0.177417
0.173996
0.170378
0.166596
0.162681
0.15866
0.154562
0.15041
0.146229
0.142038
0.137857
0.133704
0.129594
0.125539
0.121553
0.117645
0.113823
0.110095
0.106465
0.10294
0.099531
0.0962191
0.193698
0.193545
0.192659
0.191261
0.189418
0.187176
0.184582
0.181678
0.178504
0.175095
0.171487
0.16771
0.163794
0.159769
0.155661
0.151494
0.147293
0.143078
0.138868
0.134683
0.130536
0.126442
0.122414
0.118462
0.114595
0.110819
0.107141
0.103568
0.100112
0.096751
0.194772
0.194622
0.193745
0.192362
0.190539
0.188318
0.185745
0.182862
0.179706
0.176313
0.172716
0.168945
0.165031
0.161002
0.156884
0.152702
0.14848
0.144239
0.139999
0.135778
0.131591
0.127455
0.123381
0.11938
0.115462
0.111634
0.107903
0.104275
0.100767
0.097351
0.195934
0.195789
0.19492
0.193555
0.191754
0.189556
0.187008
0.184149
0.181015
0.177641
0.174058
0.170296
0.166386
0.162354
0.158227
0.15403
0.149786
0.145517
0.141244
0.136985
0.132757
0.128574
0.12445
0.120396
0.116423
0.112538
0.108748
0.105061
0.101496
0.0980189
0.197176
0.197035
0.196177
0.194832
0.193055
0.190885
0.188364
0.185533
0.182424
0.179071
0.175505
0.171755
0.16785
0.163817
0.159682
0.15547
0.151205
0.146909
0.142602
0.138303
0.134029
0.129797
0.125619
0.121509
0.117476
0.11353
0.109676
0.105925
0.102297
0.0987545
0.198489
0.198353
0.197507
0.196185
0.194434
0.192294
0.189805
0.187004
0.183925
0.180597
0.177051
0.173316
0.169419
0.165387
0.161246
0.15702
0.152734
0.148409
0.144067
0.139727
0.135407
0.131122
0.126888
0.122718
0.118621
0.114609
0.110687
0.106867
0.103171
0.099558
0.199866
0.199735
0.198902
0.197605
0.195884
0.193777
0.191323
0.188557
0.18551
0.182211
0.17869
0.174973
0.171087
0.167058
0.162913
0.158675
0.154368
0.150016
0.145638
0.141256
0.136887
0.132548
0.128255
0.124021
0.119857
0.115775
0.111782
0.107887
0.104119
0.10043
0.2013
0.201173
0.200356
0.199085
0.197396
0.195326
0.192911
0.190183
0.187173
0.183908
0.180414
0.176719
0.172848
0.168826
0.164678
0.16043
0.156105
0.151725
0.147312
0.142887
0.138468
0.134073
0.129719
0.125418
0.121185
0.117029
0.112959
0.108987
0.10514
0.101371
0.202783
0.20266
0.20186
0.200618
0.198964
0.196934
0.194561
0.191877
0.188908
0.18568
0.182219
0.178549
0.174696
0.170684
0.166538
0.162282
0.15794
0.153533
0.149086
0.144618
0.140148
0.135697
0.131278
0.126909
0.122602
0.118369
0.114219
0.110165
0.106236
0.102382
0.204308
0.20419
0.203408
0.202197
0.200581
0.198594
0.196269
0.193631
0.190708
0.187522
0.184098
0.180458
0.176628
0.17263
0.168488
0.164227
0.15987
0.155439
0.150958
0.146447
0.141927
0.137417
0.132934
0.128494
0.124111
0.119798
0.115564
0.111424
0.107408
0.103464
0.205869
0.205756
0.204993
0.203816
0.202241
0.200301
0.198026
0.19544
0.192567
0.189428
0.186045
0.182441
0.178638
0.174658
0.170525
0.166262
0.161892
0.157439
0.152926
0.148373
0.143803
0.139234
0.134684
0.130172
0.125711
0.121315
0.116994
0.112764
0.108657
0.104617
0.20746
0.207353
0.206611
0.205469
0.203938
0.202049
0.199828
0.197298
0.194479
0.191392
0.188056
0.184492
0.180721
0.176763
0.172643
0.168382
0.164004
0.159531
0.154987
0.150395
0.145774
0.141146
0.13653
0.131943
0.127402
0.122921
0.118511
0.114187
0.109984
0.105845
0.209076
0.208974
0.208255
0.20715
0.205666
0.20383
0.201668
0.199198
0.19644
0.193409
0.190126
0.186607
0.182872
0.178943
0.17484
0.170585
0.166201
0.161712
0.157141
0.152509
0.14784
0.143154
0.13847
0.133809
0.129186
0.124617
0.120114
0.115694
0.111391
0.107147
0.210711
0.210613
0.209919
0.208854
0.207419
0.205641
0.203541
0.201137
0.198443
0.195475
0.192248
0.18878
0.185088
0.181192
0.177111
0.172867
0.168483
0.163981
0.159384
0.154716
0.15
0.145256
0.140505
0.135768
0.131062
0.126403
0.121805
0.117286
0.112879
0.108526
0.21236
0.212267
0.211599
0.210575
0.209193
0.207476
0.205443
0.203107
0.200483
0.197582
0.194419
0.191007
0.187364
0.183506
0.179453
0.175225
0.170844
0.166333
0.161716
0.157014
0.152252
0.147452
0.142635
0.137821
0.133031
0.128281
0.123586
0.118965
0.114449
0.109983
0.214018
0.213931
0.213289
0.212309
0.210982
0.209329
0.207367
0.205105
0.202556
0.199728
0.196633
0.193284
0.189695
0.185881
0.181861
0.177655
0.173283
0.168768
0.164133
0.159401
0.154596
0.149741
0.144858
0.139969
0.135094
0.130252
0.125458
0.120732
0.116105
0.111519
0.215681
0.215599
0.214987
0.214052
0.212782
0.211197
0.209309
0.207126
0.204656
0.201906
0.198886
0.195606
0.192077
0.188314
0.184334
0.180154
0.175797
0.171282
0.166634
0.161875
0.15703
0.152123
0.147176
0.142212
0.137252
0.132317
0.127422
0.12259
0.117847
0.113137
0.217346
0.217268
0.216686
0.215799
0.214589
0.213075
0.211265
0.209165
0.206779
0.204114
0.201174
0.197968
0.194506
0.1908
0.186865
0.182719
0.178382
0.173873
0.169216
0.164435
0.159554
0.154597
0.149587
0.14455
0.139506
0.134476
0.12948
0.124539
0.119677
0.114838
0.219007
0.218935
0.218384
0.217546
0.216398
0.214958
0.21323
0.211217
0.208921
0.206345
0.203491
0.200366
0.196977
0.193335
0.189453
0.185347
0.181035
0.176538
0.171878
0.167079
0.162166
0.157162
0.152093
0.146982
0.141854
0.136731
0.131632
0.126581
0.121597
0.116623
0.220662
0.220595
0.220077
0.219289
0.218207
0.216843
0.215201
0.213279
0.211077
0.208595
0.205834
0.202796
0.199487
0.195915
0.192092
0.188033
0.183754
0.179275
0.174618
0.169806
0.164864
0.159817
0.154691
0.14951
0.1443
0.139082
0.13388
0.128719
0.12361
0.118495
0.222308
0.222246
0.221762
0.221025
0.22001
0.218726
0.217173
0.215346
0.213244
0.210862
0.208198
0.205253
0.202031
0.198536
0.19478
0.190774
0.186535
0.18208
0.177432
0.172613
0.167648
0.162562
0.157382
0.152133
0.146842
0.141531
0.136225
0.130953
0.125716
0.120456
0.223941
0.223883
0.223435
0.222752
0.221806
0.220604
0.219143
0.217416
0.215417
0.213139
0.210579
0.207734
0.204605
0.201195
0.197512
0.193567
0.189375
0.184952
0.180319
0.175498
0.170515
0.165396
0.160165
0.154852
0.149481
0.144078
0.138669
0.133285
0.127919
0.122506
0.225559
0.225506
0.225094
0.224465
0.22359
0.222473
0.221107
0.219483
0.217592
0.215425
0.212974
0.210235
0.207205
0.203887
0.200285
0.196408
0.19227
0.187886
0.183275
0.17846
0.173465
0.168316
0.16304
0.157664
0.152217
0.146724
0.141212
0.135716
0.130219
0.124647
0.227159
0.227111
0.226736
0.226163
0.225361
0.22433
0.223063
0.221545
0.219766
0.217714
0.215378
0.212751
0.209828
0.206608
0.203095
0.199294
0.195217
0.190879
0.186298
0.181495
0.176495
0.171322
0.166005
0.160572
0.15505
0.149469
0.143856
0.138249
0.132619
0.126882
0.228739
0.228696
0.22836
0.227842
0.227114
0.226173
0.225006
0.223599
0.221936
0.220003
0.217787
0.215278
0.212469
0.209355
0.205937
0.20222
0.198213
0.193929
0.189385
0.184602
0.179602
0.174412
0.169059
0.163573
0.157981
0.152314
0.146601
0.140884
0.135121
0.129211
0.230297
0.230258
0.229961
0.229501
0.22885
0.227999
0.226936
0.225641
0.224098
0.222289
0.220199
0.217814
0.215124
0.212123
0.208808
0.205183
0.201254
0.197032
0.192533
0.187777
0.182785
0.177584
0.172202
0.166667
0.161009
0.155258
0.149448
0.143622
0.137726
0.131635
0.231832
0.231797
0.23154
0.231137
0.230563
0.229805
0.228848
0.227669
0.22625
0.224569
0.222609
0.220353
0.217789
0.214908
0.211705
0.208179
0.204336
0.200185
0.19574
0.191018
0.186042
0.180837
0.175431
0.169853
0.164133
0.158303
0.152397
0.146465
0.140435
0.134157
0.233341
0.233311
0.233095
0.23275
0.232254
0.23159
0.23074
0.22968
0.228387
0.226839
0.225014
0.222893
0.220462
0.217707
0.214622
0.211204
0.207456
0.203384
0.199
0.194322
0.18937
0.184168
0.178745
0.17313
0.167354
0.161448
0.155449
0.149413
0.143251
0.136777
0.234824
0.234797
0.234622
0.234336
0.23392
0.233351
0.232611
0.231671
0.230508
0.229096
0.227411
0.22543
0.223137
0.220516
0.217557
0.214255
0.210609
0.206625
0.202312
0.197686
0.192766
0.187575
0.182142
0.176496
0.170669
0.164693
0.158604
0.152467
0.146175
0.139495
0.236279
0.236256
0.236123
0.235895
0.235559
0.235087
0.234458
0.233641
0.232611
0.231338
0.229796
0.227961
0.225812
0.223331
0.220506
0.217327
0.213792
0.209904
0.205671
0.201106
0.196226
0.191056
0.185621
0.179951
0.174079
0.168036
0.161862
0.155627
0.149208
0.142313
0.237704
0.237685
0.237594
0.237425
0.237171
0.236795
0.236279
0.235587
0.234691
0.233561
0.232167
0.230483
0.228484
0.226149
0.223464
0.220417
0.217002
0.213219
0.209074
0.204579
0.199749
0.194607
0.189178
0.183492
0.177581
0.171478
0.165223
0.158894
0.15235
0.145231
0.2391
0.239084
0.239036
0.238926
0.238753
0.238475
0.238072
0.237507
0.236749
0.235764
0.234521
0.232992
0.231147
0.228966
0.226428
0.22352
0.220233
0.216565
0.212518
0.208102
0.203331
0.198226
0.192812
0.187117
0.181175
0.175018
0.168686
0.162268
0.155604
0.148248
0.240466
0.240453
0.240447
0.240396
0.240305
0.240125
0.239837
0.239399
0.23878
0.237943
0.236856
0.235485
0.233801
0.231778
0.229394
0.226633
0.223482
0.219937
0.215998
0.21167
0.206969
0.201911
0.19652
0.190825
0.184858
0.178654
0.172251
0.165748
0.15897
0.151366
0.2418
0.24179
0.241827
0.241834
0.241826
0.241745
0.241571
0.241262
0.240784
0.240098
0.239168
0.23796
0.236441
0.234582
0.232359
0.229752
0.226746
0.223333
0.21951
0.215281
0.210658
0.205656
0.200298
0.194612
0.18863
0.182385
0.175917
0.169335
0.162448
0.154583
0.243102
0.243095
0.243175
0.243241
0.243314
0.243332
0.243274
0.243094
0.242758
0.242224
0.241455
0.240413
0.239064
0.237375
0.235319
0.232873
0.23002
0.226747
0.22305
0.21893
0.214395
0.20946
0.204145
0.198477
0.192487
0.18621
0.179682
0.173026
0.166038
0.157899
0.244373
0.244369
0.244491
0.244614
0.24477
0.244886
0.244944
0.244895
0.244702
0.244322
0.243716
0.242843
0.241667
0.240153
0.238271
0.235993
0.2333
0.230177
0.226615
0.222614
0.218177
0.213319
0.208057
0.202416
0.196428
0.190126
0.183546
0.176823
0.169742
0.161313
0.245611
0.245609
0.245774
0.245955
0.246192
0.246406
0.246581
0.246662
0.246613
0.246389
0.245948
0.245247
0.244249
0.242914
0.24121
0.239108
0.236583
0.233617
0.2302
0.226327
0.222
0.217229
0.21203
0.206426
0.200449
0.194132
0.187507
0.180722
0.173558
0.164823
0.246817
0.246817
0.247024
0.247263
0.247581
0.247893
0.248183
0.248394
0.24849
0.248423
0.248148
0.247623
0.246805
0.245654
0.244135
0.242213
0.239864
0.237065
0.233802
0.230067
0.225859
0.221185
0.21606
0.210505
0.204549
0.198225
0.191563
0.184723
0.177487
0.168427
0.24799
0.247993
0.248242
0.248536
0.248936
0.249345
0.24975
0.250092
0.250333
0.250423
0.250317
0.249969
0.249334
0.248371
0.247041
0.245307
0.24314
0.240516
0.237415
0.233828
0.22975
0.225185
0.220145
0.214649
0.208724
0.202403
0.195713
0.188824
0.181527
0.172124
0.249132
0.249136
0.249427
0.249777
0.250256
0.250762
0.251282
0.251754
0.25214
0.252387
0.252451
0.252282
0.251834
0.251062
0.249925
0.248385
0.246408
0.243965
0.241037
0.237607
0.233669
0.229225
0.224281
0.218855
0.212972
0.206664
0.199953
0.193022
0.185679
0.175909
0.250241
0.250247
0.250579
0.250983
0.251542
0.252144
0.252778
0.25338
0.25391
0.254316
0.254549
0.254561
0.254301
0.253725
0.252786
0.251444
0.249663
0.24741
0.244662
0.2414
0.237613
0.233299
0.228463
0.223119
0.217289
0.211005
0.204283
0.197316
0.189942
0.179781
0.251318
0.251326
0.251698
0.252157
0.252794
0.25349
0.254237
0.254968
0.255643
0.256206
0.256611
0.256804
0.256735
0.256356
0.25562
0.254481
0.252902
0.250847
0.248287
0.245201
0.241575
0.237403
0.232687
0.0920653
0.0902196
0.0883628
0.0864945
0.0846145
0.0827232
0.0808211
0.0789087
0.0769866
0.075055
0.0731146
0.0711658
0.0692092
0.0672451
0.0652743
0.0632971
0.0613142
0.059326
0.0573332
0.0553363
0.0533358
0.0921495
0.0903088
0.0884595
0.0865984
0.0847246
0.0828387
0.0809413
0.0790328
0.0771136
0.0751842
0.0732451
0.0712967
0.0693395
0.0673742
0.0654011
0.063421
0.0614343
0.0594416
0.0574434
0.0554405
0.0534334
0.0922972
0.0904504
0.0885992
0.0867365
0.08486
0.0829707
0.0810692
0.0791561
0.0772319
0.0752968
0.0733516
0.0713966
0.0694323
0.0674594
0.0654784
0.0634898
0.0614942
0.0594922
0.0574843
0.0554712
0.0534536
0.0925145
0.0906549
0.0887974
0.0869291
0.085046
0.0831491
0.0812396
0.0793179
0.0773845
0.0754398
0.0734843
0.0715185
0.069543
0.0675582
0.0655649
0.0635634
0.0615545
0.0595388
0.0575167
0.0554891
0.0534564
0.0927955
0.0909156
0.0890465
0.0871677
0.0852728
0.0833634
0.0814408
0.0795056
0.0775581
0.0755989
0.0736284
0.0716472
0.0696558
0.0676548
0.0656447
0.0636261
0.0615997
0.059566
0.0575257
0.0554794
0.0534277
0.0931401
0.0912331
0.0893474
0.0874538
0.0855426
0.083616
0.0816758
0.0797227
0.0777568
0.0757787
0.073789
0.071788
0.0697765
0.067755
0.065724
0.0636842
0.0616361
0.0595805
0.0575178
0.0554489
0.0533744
0.093547
0.0916063
0.0896993
0.0877864
0.0858545
0.0839063
0.0819441
0.0799686
0.07798
0.0759787
0.0739655
0.0719407
0.0699049
0.0678588
0.0658028
0.0637378
0.0616642
0.0595826
0.0574939
0.0553986
0.0532974
0.094016
0.0920353
0.0901023
0.0881658
0.086209
0.0842348
0.0822463
0.0802442
0.0782286
0.0762001
0.0741592
0.0721064
0.0700424
0.0679677
0.0658829
0.0637887
0.0616857
0.0595745
0.0574559
0.0553305
0.053199
0.0945474
0.0925206
0.0905568
0.0885927
0.0866066
0.0846022
0.0825831
0.0805502
0.0785036
0.0764437
0.0743711
0.0722864
0.0701902
0.068083
0.0659656
0.0638384
0.0617022
0.0595577
0.0574055
0.0552464
0.0530809
0.0951416
0.093063
0.0910638
0.0890678
0.0870481
0.0850093
0.0829556
0.0808878
0.078806
0.0767107
0.0746025
0.0724819
0.0703496
0.0682061
0.0660521
0.0638883
0.0617152
0.0595337
0.0573443
0.0551478
0.052945
0.0957997
0.0936637
0.0916243
0.0895921
0.0875348
0.0854573
0.0833647
0.0812579
0.079137
0.0770023
0.0748545
0.0726941
0.0705218
0.0683382
0.066144
0.0639397
0.0617261
0.0595039
0.0572738
0.0550364
0.0527926
0.096523
0.0943239
0.0922396
0.0901671
0.0880679
0.0859475
0.0838119
0.081662
0.0794978
0.0773197
0.0751283
0.0729243
0.0707082
0.0684807
0.0662425
0.0639941
0.0617363
0.0594699
0.0571954
0.0549137
0.0526255
0.0973129
0.0950454
0.0929112
0.0907941
0.0886487
0.0864812
0.0842985
0.0821014
0.0798899
0.0776644
0.0754255
0.0731739
0.0709102
0.068635
0.066349
0.0640528
0.0617472
0.0594329
0.0571106
0.054781
0.052445
0.0501032
0.0981713
0.09583
0.0936409
0.0914747
0.089279
0.0870601
0.084826
0.0825775
0.0803146
0.0780377
0.0757474
0.0734443
0.071129
0.0688023
0.0664648
0.0641171
0.0617601
0.0593943
0.0570206
0.0546397
0.0522523
0.0498593
0.0991
0.0966797
0.0944306
0.0922109
0.0899604
0.0876859
0.085396
0.083092
0.0807736
0.0784411
0.0760953
0.0737368
0.0713661
0.0689841
0.0665913
0.0641884
0.0617762
0.0593554
0.0569267
0.0544909
0.0520488
0.0496011
0.100101
0.0975966
0.0952822
0.0930045
0.0906948
0.0883601
0.0860102
0.0836464
0.0812683
0.0788762
0.0764708
0.0740528
0.0716229
0.0691816
0.0667297
0.0642679
0.0617968
0.0593173
0.0568301
0.0543359
0.0518356
0.0493298
0.101177
0.0985831
0.0961978
0.0938573
0.091484
0.0890848
0.0866704
0.0842425
0.0818003
0.0793444
0.0768754
0.0743939
0.0719006
0.0693962
0.0668814
0.0643568
0.0618232
0.0592814
0.056732
0.0541759
0.0516138
0.0490466
0.102331
0.0996415
0.0971797
0.0947717
0.09233
0.0898617
0.0873784
0.0848818
0.0823714
0.0798474
0.0773105
0.0747615
0.0722008
0.0696293
0.0670476
0.0644565
0.0618565
0.0592486
0.0566335
0.0540118
0.0513845
0.0487523
0.103564
0.100774
0.09823
0.0957496
0.093235
0.0906928
0.088136
0.0855664
0.0829832
0.0803868
0.0777778
0.0751569
0.0725248
0.0698822
0.0672297
0.064568
0.061898
0.0592202
0.0565356
0.0538448
0.0511487
0.0484481
0.10488
0.101984
0.0993512
0.0967933
0.0942009
0.0915802
0.0889451
0.0862978
0.0836374
0.0809641
0.0782787
0.0755817
0.072874
0.0701561
0.0674288
0.0646927
0.0619486
0.0591973
0.0564394
0.0536758
0.0509073
0.0481347
0.10628
0.103273
0.100546
0.097905
0.0952301
0.0925258
0.0898077
0.087078
0.0843358
0.0815811
0.0788148
0.0760375
0.0732498
0.0704525
0.0676463
0.0648317
0.0620097
0.0591808
0.056346
0.0535059
0.0506613
0.0478131
0.107769
0.104645
0.101816
0.0990871
0.0963246
0.0935318
0.0907258
0.0879089
0.0850801
0.0822394
0.0793877
0.0765255
0.0736536
0.0707727
0.0678833
0.0649862
0.0620822
0.0591719
0.0562562
0.0533358
0.0504115
0.0474842
0.109349
0.106101
0.103164
0.100342
0.0974867
0.0946004
0.0917013
0.0887923
0.0858721
0.0829407
0.079999
0.0770475
0.0740869
0.0711179
0.0681412
0.0651574
0.0621673
0.0591716
0.0561711
0.0531666
0.0501588
0.0471486
0.111022
0.107645
0.104592
0.101672
0.0987187
0.0957335
0.0927364
0.0897302
0.0867137
0.0836868
0.0806503
0.0776048
0.0745511
0.0714896
0.0684212
0.0653464
0.0622661
0.0591809
0.0560917
0.0529991
0.049904
0.0468071
0.112793
0.10928
0.106104
0.10308
0.100023
0.0969336
0.093833
0.0907245
0.0876067
0.0844793
0.0813433
0.0781991
0.0750475
0.0718891
0.0687245
0.0655545
0.0623797
0.0592009
0.0560188
0.0528342
0.0496478
0.0464606
0.114663
0.111007
0.107702
0.104567
0.101402
0.0982026
0.0949932
0.0917773
0.0885529
0.0853201
0.0820795
0.0788319
0.0755777
0.0723177
0.0690525
0.0657827
0.0625091
0.0592324
0.0559533
0.0526727
0.0493912
0.0461096
0.116636
0.11283
0.109388
0.106137
0.102857
0.0995429
0.0962192
0.0928904
0.0895543
0.0862109
0.0828608
0.0795047
0.0761432
0.0727768
0.0694063
0.0660323
0.0626555
0.0592766
0.0558963
0.0525154
0.0491347
0.0457549
0.118714
0.114752
0.111164
0.107792
0.104392
0.100957
0.0975131
0.0940659
0.0906128
0.0871535
0.0836887
0.0802191
0.0767453
0.0732679
0.0697874
0.0663045
0.0628199
0.0593344
0.0558486
0.0523633
0.0488792
0.0453972
0.120902
0.116776
0.113034
0.109534
0.106009
0.102446
0.098877
0.0953059
0.0917302
0.0881497
0.084565
0.0809768
0.0773857
0.0737922
0.0701969
0.0666004
0.0630035
0.0594068
0.0558111
0.052217
0.0486254
0.0450371
0.123201
0.118903
0.114999
0.111366
0.107709
0.104014
0.100313
0.0966123
0.0929086
0.0892013
0.0854914
0.0817794
0.0780658
0.0743512
0.0706361
0.0669213
0.0632073
0.0594949
0.0557847
0.0520776
0.0483742
0.0446753
0.125615
0.121137
0.117063
0.11329
0.109496
0.105662
0.101823
0.0979873
0.0941498
0.0903103
0.0864697
0.0826285
0.0787872
0.0749464
0.0711066
0.0672684
0.0634326
0.0595997
0.0557705
0.0519457
0.0481261
0.0443124
0.128148
0.12348
0.119227
0.115309
0.111371
0.107392
0.10341
0.0994329
0.0954558
0.0914784
0.0875016
0.0835257
0.0795515
0.0755792
0.0716095
0.0676431
0.0636804
0.0597223
0.0557694
0.0518224
0.047882
0.0439491
0.1308
0.125934
0.121495
0.117425
0.113337
0.109207
0.105076
0.100951
0.0968286
0.0927076
0.0885889
0.0844729
0.0803602
0.0762511
0.0721464
0.0680465
0.063952
0.0598637
0.0557823
0.0517084
0.0476427
0.0435862
0.133577
0.128503
0.123867
0.119641
0.115397
0.111108
0.106822
0.102544
0.0982702
0.0939997
0.0897334
0.0854716
0.0812149
0.0769637
0.0727185
0.06848
0.0642486
0.0600252
0.0558103
0.0516046
0.047409
0.0432242
0.13648
0.131187
0.126347
0.121958
0.117552
0.113099
0.108651
0.104214
0.0997825
0.0953567
0.0909369
0.0865237
0.0821174
0.0777185
0.0733275
0.0689449
0.0645715
0.0602077
0.0558544
0.0515121
0.0471818
0.042864
0.139511
0.13399
0.128937
0.124379
0.119805
0.115181
0.110565
0.105962
0.101368
0.0967803
0.0922012
0.0876308
0.0830692
0.078517
0.0739747
0.0694428
0.0649219
0.0604126
0.0559157
0.0514318
0.0469618
0.0425063
0.142674
0.136914
0.131639
0.126906
0.122157
0.117356
0.112565
0.107791
0.103027
0.0982726
0.0935283
0.0887947
0.0840721
0.0793609
0.0746616
0.0699748
0.0653011
0.060641
0.0559953
0.0513647
0.04675
0.0421519
0.145971
0.139959
0.134453
0.129541
0.124611
0.119626
0.114655
0.109703
0.104763
0.0998353
0.0949198
0.0900171
0.0851277
0.0802518
0.0753899
0.0705426
0.0657104
0.0608941
0.0560943
0.0513118
0.0465472
0.0418015
0.149403
0.143127
0.137383
0.132286
0.127168
0.121993
0.116835
0.111699
0.106578
0.10147
0.0963775
0.0912999
0.0862377
0.0811912
0.076161
0.0711475
0.0661514
0.0611733
0.0562139
0.0512741
0.0463545
0.041456
0.152974
0.14642
0.14043
0.135142
0.12983
0.124459
0.119107
0.113781
0.108472
0.103179
0.0979034
0.0926448
0.0874039
0.0821809
0.0769765
0.071791
0.0666252
0.0614797
0.0563553
0.0512526
0.0461726
0.0411161
0.156683
0.149839
0.143594
0.138111
0.132599
0.127025
0.121474
0.115952
0.110449
0.104964
0.099499
0.0940535
0.0886278
0.0832225
0.0778379
0.0724747
0.0671334
0.0618148
0.0565196
0.0512486
0.0460027
0.0407828
0.160534
0.153384
0.146877
0.141195
0.135476
0.129692
0.123936
0.118212
0.112509
0.106827
0.101166
0.0955276
0.0899113
0.0843176
0.078747
0.0732
0.0676774
0.0621798
0.0567081
0.051263
0.0458456
0.0404567
0.164526
0.157056
0.15028
0.144394
0.138462
0.132463
0.126496
0.120564
0.114654
0.108768
0.102907
0.097069
0.0912559
0.0854678
0.0797051
0.0739685
0.0682585
0.062576
0.0569219
0.051297
0.0457023
0.0401389
0.168662
0.160854
0.153803
0.147709
0.141558
0.135337
0.129154
0.123007
0.116886
0.110791
0.104722
0.0986791
0.0926633
0.0866748
0.0807139
0.0747815
0.0688782
0.0630048
0.0571623
0.0513516
0.0455738
0.03983
0.17294
0.164777
0.157446
0.151141
0.144765
0.138316
0.13191
0.125545
0.119206
0.112895
0.106613
0.100359
0.094135
0.0879399
0.0817749
0.0756406
0.0695378
0.0634674
0.0574304
0.0514279
0.045461
0.0395309
0.177362
0.168825
0.161209
0.154689
0.148082
0.1414
0.134767
0.128177
0.121615
0.115083
0.108582
0.102112
0.0956724
0.0892648
0.0828894
0.0765471
0.0702386
0.063965
0.0577273
0.0515269
0.0453647
0.0392423
0.181927
0.172996
0.16509
0.158353
0.151509
0.144589
0.137725
0.130904
0.124114
0.117355
0.11063
0.103937
0.0972769
0.0906507
0.0840589
0.0775023
0.0709818
0.0644987
0.0580542
0.0516494
0.0452858
0.0389649
0.186633
0.177287
0.169088
0.162132
0.155046
0.147884
0.140782
0.133727
0.126703
0.119713
0.112757
0.105836
0.0989498
0.092099
0.0852845
0.0785073
0.0717687
0.0650697
0.0584118
0.0517964
0.0452251
0.0386994
0.173202
0.166025
0.158691
0.151283
0.143941
0.136646
0.129384
0.122157
0.114966
0.107811
0.100692
0.0936105
0.0865673
0.0795634
0.0726001
0.0656788
0.0588011
0.0519687
0.0451831
0.0384463
0.170029
0.162443
0.154785
0.147199
0.13966
0.132155
0.124687
0.117255
0.109861
0.102504
0.0951864
0.0879082
0.0806712
0.0734769
0.0663269
0.0592229
0.0521669
0.0451606
0.0382062
0.158388
0.150555
0.14277
0.135018
0.127303
0.119627
0.111988
0.104388
0.0968271
0.089308
0.0818316
0.0743999
0.0670146
0.0596778
0.0523915
0.045158
0.0379794
0.154009
0.145973
0.137971
0.130006
0.122079
0.114191
0.106342
0.0985331
0.0907669
0.083045
0.0753694
0.0677423
0.0601661
0.0526431
0.0451756
0.0377664
0.141013
0.132795
0.124614
0.116471
0.108367
0.100305
0.0922855
0.0843118
0.0763861
0.0685107
0.0606885
0.052922
0.0452141
0.0375676
0.135669
0.12723
0.118828
0.110465
0.102143
0.0938645
0.0856329
0.0774505
0.0693203
0.0612454
0.0532289
0.0452738
0.0373834
0.0295607
0.121258
0.11263
0.104043
0.0955005
0.0870049
0.0785597
0.0701685
0.0618346
0.0535616
0.045353
0.0372123
0.029143
0.105994
0.0971831
0.0884195
0.0797073
0.0710503
0.0624525
0.0539179
0.0454504
0.037054
0.0287326
0.0989438
0.0899065
0.0809208
0.0719912
0.0631224
0.0543188
0.045585
0.0369255
0.0283445
0.082273
0.0730502
0.0638906
0.0547994
0.0457817
0.0368424
0.0279863
0.0739786
0.0645294
0.0551524
0.0458528
0.0366362
0.0275077
0.0549164
0.0454494
0.0360597
0.0267531
)
;

boundaryField
{
    inlet
    {
        type            zeroGradient;
    }
    outlet
    {
        type            fixedValue;
        value           nonuniform 0();
    }
    cylinder
    {
        type            zeroGradient;
    }
    top
    {
        type            symmetryPlane;
    }
    bottom
    {
        type            symmetryPlane;
    }
    defaultFaces
    {
        type            empty;
    }
    procBoundary0to1
    {
        type            processor;
        value           nonuniform List<scalar> 
49
(
0.0513324
0.0514226
0.051432
0.0514194
0.0513714
0.0512949
0.0511911
0.0510621
0.05091
0.0507364
0.0505431
0.0503316
0.0503316
0.0477564
0.0474614
0.0471487
0.0468195
0.046475
0.0461161
0.0457437
0.0453588
0.0449622
0.0445545
0.0441367
0.0437094
0.0432732
0.0428289
0.042377
0.0419181
0.0414528
0.0409817
0.0405054
0.0400245
0.0395394
0.039051
0.0385597
0.0380662
0.0375713
0.0370754
0.0365795
0.036084
0.0355897
0.0350974
0.0346076
0.0341212
0.0336387
0.0331608
0.032688
0.0322209
)
;
    }
    procBoundary0to4
    {
        type            processor;
        value           nonuniform List<scalar> 
66
(
0.0592868
0.0492493
0.039272
0.227436
0.221672
0.215423
0.2087
0.201703
0.194313
0.183735
0.252364
0.252373
0.252785
0.253297
0.254012
0.254801
0.255661
0.256519
0.257338
0.258059
0.258634
0.25901
0.259134
0.258955
0.258424
0.257494
0.256122
0.25427
0.251908
0.249008
0.245553
0.241534
0.227436
0.236949
0.183735
0.19148
0.181694
0.181694
0.177427
0.177427
0.17414
0.166299
0.166299
0.162091
0.162091
0.157557
0.149268
0.149268
0.144145
0.144145
0.138625
0.129924
0.129924
0.123743
0.114848
0.114848
0.108028
0.108028
0.100888
0.091554
0.091554
0.0834941
0.0834941
0.0740571
0.0644544
0.0644544
)
;
    }
    procBoundary0to5
    {
        type            processor;
        value           nonuniform List<scalar> 
14
(
0.0293626
0.03176
0.0313055
0.030858
0.0304178
0.0299853
0.0299853
0.021809
0.0211487
0.0204901
0.0198464
0.0192182
0.0184725
0.0175353
)
;
    }
}


// ************************************************************************* //
