-0.37194 	0.37194 	1.17961e-17 	0.120944 	0.116393 	8.08106e-20
-0.409303 	0.409303 	7.63278e-18 	0.300135 	0.273323 	-2.24074e-20
-0.448053 	0.448053 	1.35308e-17 	0.444207 	0.377824 	7.29193e-20
-0.488244 	0.488244 	2.56739e-17 	0.55688 	0.442956 	5.91663e-20
-0.529927 	0.529927 	3.33067e-17 	0.646499 	0.477302 	1.55263e-20
-0.573159 	0.573159 	3.88578e-17 	0.71665 	0.48899 	9.82696e-21
-0.617998 	0.617998 	3.19189e-17 	0.771899 	0.484093 	-1.98736e-19
-0.664503 	0.664503 	-7.63278e-18 	0.815249 	0.467946 	-5.32013e-20
