0 	0.525939 	1.249e-17 	-0.577498
0 	0.57878 	1.249e-17 	-0.502867
0 	0.633585 	1.249e-17 	-0.481774
0 	0.690426 	1.11022e-17 	-0.438309
0 	0.749378 	9.71445e-18 	-0.407398
0 	0.810522 	9.71445e-18 	-0.371193
0 	0.873937 	9.71445e-18 	-0.337946
0 	0.939708 	1.11022e-17 	-0.304379
