0 	0.525939 	1.249e-17 	0.123123 	0.00261885 	4.89988e-21
0 	0.57878 	1.249e-17 	0.326434 	0.0232096 	-1.10501e-21
0 	0.633585 	1.249e-17 	0.50278 	0.0584687 	-2.34832e-21
0 	0.690426 	1.11022e-17 	0.654964 	0.0954108 	-1.47774e-22
0 	0.749378 	9.71445e-18 	0.785553 	0.13303 	-3.93728e-21
0 	0.810522 	9.71445e-18 	0.896004 	0.166703 	-4.53711e-21
0 	0.873937 	9.71445e-18 	0.987871 	0.195594 	3.20475e-21
0 	0.939708 	1.11022e-17 	1.06265 	0.218368 	2.97837e-21
