# Forces      
# CofR        : (0.000000e+00 0.000000e+00 0.000000e+00)
# Time        forces(pressure viscous porous)	moments(pressure viscous porous)
0.0025        	((3.038387e+01 1.198929e-07 5.084630e-19) (1.167699e-01 1.775996e-10 -1.109172e-20) (0.000000e+00 0.000000e+00 0.000000e+00)) ((1.112988e-18 4.003440e-18 -3.743922e-13) (-1.180148e-20 3.124102e-21 -8.798240e-13) (0.000000e+00 0.000000e+00 0.000000e+00))
0.005         	((8.656043e-01 -2.117582e-07 -2.935652e-21) (1.099246e-01 -5.215310e-11 1.505925e-22) (0.000000e+00 0.000000e+00 0.000000e+00)) ((3.164249e-20 1.141834e-19 -7.639873e-14) (-2.638018e-22 1.368467e-20 -4.828686e-12) (0.000000e+00 0.000000e+00 0.000000e+00))
0.0075        	((2.483783e-01 9.176311e-08 3.721405e-22) (1.072030e-01 -1.027060e-11 8.205557e-23) (0.000000e+00 0.000000e+00 0.000000e+00)) ((9.055116e-21 3.268156e-20 5.544124e-13) (-4.149985e-23 1.353246e-20 -1.333190e-11) (0.000000e+00 0.000000e+00 0.000000e+00))
0.01          	((1.555108e-01 -2.332132e-08 5.808273e-22) (1.051144e-01 -4.521967e-11 7.913174e-23) (0.000000e+00 0.000000e+00 0.000000e+00)) ((5.660629e-21 2.045746e-20 3.820116e-14) (-7.227937e-24 1.332005e-20 -1.386115e-11) (0.000000e+00 0.000000e+00 0.000000e+00))
0.0125        	((1.202764e-01 2.053055e-08 6.873998e-22) (1.033133e-01 -1.867482e-11 7.921539e-23) (0.000000e+00 0.000000e+00 0.000000e+00)) ((4.375240e-21 1.581621e-20 -5.239398e-15) (4.620154e-24 1.311962e-20 -1.345609e-11) (0.000000e+00 0.000000e+00 0.000000e+00))
0.015         	((1.043103e-01 -9.428767e-09 7.330746e-22) (1.016875e-01 -3.111773e-11 8.086184e-23) (0.000000e+00 0.000000e+00 0.000000e+00)) ((3.800024e-21 1.371105e-20 3.013723e-14) (8.573733e-24 1.293130e-20 -1.264087e-11) (0.000000e+00 0.000000e+00 0.000000e+00))
0.0175        	((9.635233e-02 4.988567e-09 7.433875e-22) (1.001848e-01 -2.325026e-11 8.342941e-23) (0.000000e+00 0.000000e+00 0.000000e+00)) ((3.523241e-21 1.266021e-20 -3.162729e-14) (9.130145e-24 1.275343e-20 -1.160403e-11) (0.000000e+00 0.000000e+00 0.000000e+00))
0.02          	((9.208388e-02 -6.606619e-10 7.314331e-22) (9.877596e-02 -1.737643e-11 8.659151e-23) (0.000000e+00 0.000000e+00 0.000000e+00)) ((3.387626e-21 1.209559e-20 7.834119e-14) (8.194043e-24 1.258440e-20 -1.051454e-11) (0.000000e+00 0.000000e+00 0.000000e+00))
0.0225        	((8.961050e-02 1.418512e-08 7.070399e-22) (9.744253e-02 6.842350e-12 9.019621e-23) (0.000000e+00 0.000000e+00 0.000000e+00)) ((3.321417e-21 1.176786e-20 -3.429153e-14) (6.625966e-24 1.242296e-20 -9.221180e-12) (0.000000e+00 0.000000e+00 0.000000e+00))
0.025         	((8.803963e-02 -7.573693e-09 6.748820e-22) (9.617193e-02 9.582081e-13 9.418091e-23) (0.000000e+00 0.000000e+00 0.000000e+00)) ((3.284792e-21 1.156009e-20 1.150262e-15) (4.861379e-24 1.226808e-20 -7.725606e-12) (0.000000e+00 0.000000e+00 0.000000e+00))
0.0275        	((8.692519e-02 -1.069965e-10 6.385944e-22) (9.495506e-02 3.532637e-12 9.847992e-23) (0.000000e+00 0.000000e+00 0.000000e+00)) ((3.257743e-21 1.141391e-20 -6.388760e-15) (3.104679e-24 1.211894e-20 -6.173038e-12) (0.000000e+00 0.000000e+00 0.000000e+00))
0.03          	((8.603662e-02 -1.213391e-09 5.998935e-22) (9.378500e-02 5.437807e-12 1.030241e-22) (0.000000e+00 0.000000e+00 0.000000e+00)) ((3.230413e-21 1.129903e-20 1.208531e-14) (1.457265e-24 1.197489e-20 -4.647783e-12) (0.000000e+00 0.000000e+00 0.000000e+00))
0.0325        	((8.525361e-02 -7.877900e-09 5.600685e-22) (9.265636e-02 -2.309151e-13 1.077437e-22) (0.000000e+00 0.000000e+00 0.000000e+00)) ((3.198451e-21 1.119925e-20 -3.559920e-14) (-5.512023e-26 1.183543e-20 -3.082285e-12) (0.000000e+00 0.000000e+00 0.000000e+00))
0.035         	((8.451540e-02 -4.228046e-09 5.201254e-22) (9.156486e-02 -2.641265e-12 1.125748e-22) (0.000000e+00 0.000000e+00 0.000000e+00)) ((3.161307e-21 1.110588e-20 1.187760e-14) (-1.435790e-24 1.170015e-20 -1.504255e-12) (0.000000e+00 0.000000e+00 0.000000e+00))
0.0375        	((8.378980e-02 1.309553e-09 4.804553e-22) (9.050698e-02 3.164273e-12 1.174758e-22) (0.000000e+00 0.000000e+00 0.000000e+00)) ((3.120516e-21 1.101387e-20 -1.983949e-14) (-2.682301e-24 1.156872e-20 1.180486e-14) (0.000000e+00 0.000000e+00 0.000000e+00))
0.04          	((8.306778e-02 -2.325566e-09 4.417812e-22) (8.947982e-02 4.298480e-12 1.224134e-22) (0.000000e+00 0.000000e+00 0.000000e+00)) ((3.077223e-21 1.092164e-20 -2.108853e-15) (-3.762608e-24 1.144082e-20 1.488270e-12) (0.000000e+00 0.000000e+00 0.000000e+00))
0.0425        	((8.234026e-02 -2.209644e-09 4.037860e-22) (8.848093e-02 5.126827e-12 1.273768e-22) (0.000000e+00 0.000000e+00 0.000000e+00)) ((3.032217e-21 1.082751e-20 -1.143385e-14) (-4.669786e-24 1.131621e-20 2.949857e-12) (0.000000e+00 0.000000e+00 0.000000e+00))
0.045         	((8.160555e-02 -1.799377e-09 3.667772e-22) (8.750826e-02 5.683081e-12 1.323621e-22) (0.000000e+00 0.000000e+00 0.000000e+00)) ((2.986099e-21 1.073107e-20 -2.244018e-15) (-5.430191e-24 1.119467e-20 4.372028e-12) (0.000000e+00 0.000000e+00 0.000000e+00))
0.0475        	((8.086601e-02 -1.483588e-09 3.304870e-22) (8.656006e-02 7.389060e-12 1.373739e-22) (0.000000e+00 0.000000e+00 0.000000e+00)) ((2.938783e-21 1.063284e-20 -5.456588e-15) (-6.070410e-24 1.107602e-20 5.748468e-12) (0.000000e+00 0.000000e+00 0.000000e+00))
0.05          	((8.012666e-02 -1.207570e-09 2.957010e-22) (8.563480e-02 8.494546e-12 1.423999e-22) (0.000000e+00 0.000000e+00 0.000000e+00)) ((2.890643e-21 1.053371e-20 1.562565e-15) (-6.626289e-24 1.096008e-20 7.076328e-12) (0.000000e+00 0.000000e+00 0.000000e+00))
0.0525        	((7.938885e-02 -1.301538e-09 2.615336e-22) (8.473114e-02 1.041963e-11 1.474468e-22) (0.000000e+00 0.000000e+00 0.000000e+00)) ((2.842163e-21 1.043404e-20 -1.053648e-14) (-7.133186e-24 1.084670e-20 8.343460e-12) (0.000000e+00 0.000000e+00 0.000000e+00))
0.055         	((7.865736e-02 -1.184033e-09 2.287503e-22) (8.384790e-02 1.182232e-11 1.524995e-22) (0.000000e+00 0.000000e+00 0.000000e+00)) ((2.793928e-21 1.033466e-20 4.599602e-16) (-7.625855e-24 1.073575e-20 9.561596e-12) (0.000000e+00 0.000000e+00 0.000000e+00))
0.0575        	((7.793394e-02 -1.154631e-09 1.969399e-22) (8.298404e-02 1.378956e-11 1.575553e-22) (0.000000e+00 0.000000e+00 0.000000e+00)) ((2.746490e-21 1.023594e-20 -4.013383e-15) (-8.131930e-24 1.062709e-20 1.073883e-11) (0.000000e+00 0.000000e+00 0.000000e+00))
0.06          	((7.722279e-02 -1.073308e-09 1.662378e-22) (8.213862e-02 1.590307e-11 1.626025e-22) (0.000000e+00 0.000000e+00 0.000000e+00)) ((2.700159e-21 1.013866e-20 -1.980534e-14) (-8.663798e-24 1.052061e-20 1.186587e-11) (0.000000e+00 0.000000e+00 0.000000e+00))
0.0625        	((7.652346e-02 -6.889895e-10 1.371567e-22) (8.131083e-02 1.626799e-11 1.676310e-22) (0.000000e+00 0.000000e+00 0.000000e+00)) ((2.655885e-21 1.004277e-20 4.431100e-15) (-9.243254e-24 1.041622e-20 1.296140e-11) (0.000000e+00 0.000000e+00 0.000000e+00))
0.065         	((7.583805e-02 -8.950960e-10 1.085315e-22) (8.049990e-02 1.839197e-11 1.726562e-22) (0.000000e+00 0.000000e+00 0.000000e+00)) ((2.613534e-21 9.948705e-21 -1.401408e-14) (-9.869525e-24 1.031382e-20 1.394569e-11) (0.000000e+00 0.000000e+00 0.000000e+00))
0.0675        	((7.516736e-02 -1.125695e-09 8.110730e-23) (7.970516e-02 1.971444e-11 1.776699e-22) (0.000000e+00 0.000000e+00 0.000000e+00)) ((2.573530e-21 9.856595e-21 -4.374528e-15) (-1.054397e-23 1.021335e-20 1.493081e-11) (0.000000e+00 0.000000e+00 0.000000e+00))
0.07          	((7.451218e-02 -1.033181e-09 5.369997e-23) (7.892597e-02 2.141945e-11 1.826893e-22) (0.000000e+00 0.000000e+00 0.000000e+00)) ((2.535630e-21 9.766628e-21 -2.322895e-14) (-1.125374e-23 1.011473e-20 1.588429e-11) (0.000000e+00 0.000000e+00 0.000000e+00))
0.0725        	((7.387254e-02 -1.200938e-09 2.734605e-23) (7.816176e-02 2.187737e-11 1.877033e-22) (0.000000e+00 0.000000e+00 0.000000e+00)) ((2.500019e-21 9.678732e-21 -1.550725e-14) (-1.199612e-23 1.001790e-20 1.679388e-11) (0.000000e+00 0.000000e+00 0.000000e+00))
0.075         	((7.325478e-02 -1.186029e-09 2.017026e-24) (7.741199e-02 2.268775e-11 1.927081e-22) (0.000000e+00 0.000000e+00 0.000000e+00)) ((2.465353e-21 9.593941e-21 4.224556e-15) (-1.275144e-23 9.922800e-21 1.765030e-11) (0.000000e+00 0.000000e+00 0.000000e+00))
0.0775        	((7.265278e-02 -8.737199e-10 -2.265877e-23) (7.667616e-02 2.417328e-11 1.977069e-22) (0.000000e+00 0.000000e+00 0.000000e+00)) ((2.432978e-21 9.511207e-21 1.782619e-14) (-1.352361e-23 9.829369e-21 1.845997e-11) (0.000000e+00 0.000000e+00 0.000000e+00))
0.08          	((7.206544e-02 -8.033462e-10 -4.682571e-23) (7.595383e-02 2.528503e-11 2.027078e-22) (0.000000e+00 0.000000e+00 0.000000e+00)) ((2.402671e-21 9.430365e-21 -3.050078e-14) (-1.430278e-23 9.737559e-21 1.922742e-11) (0.000000e+00 0.000000e+00 0.000000e+00))
0.0825        	((7.149218e-02 -7.793266e-10 -7.115770e-23) (7.524458e-02 2.662737e-11 2.077258e-22) (0.000000e+00 0.000000e+00 0.000000e+00)) ((2.373919e-21 9.351379e-21 2.294928e-14) (-1.507677e-23 9.647338e-21 1.995564e-11) (0.000000e+00 0.000000e+00 0.000000e+00))
0.085         	((7.093599e-02 -9.205154e-10 -9.414778e-23) (7.454802e-02 2.765590e-11 2.127436e-22) (0.000000e+00 0.000000e+00 0.000000e+00)) ((2.346504e-21 9.274696e-21 -3.576523e-14) (-1.584345e-23 9.558644e-21 2.064766e-11) (0.000000e+00 0.000000e+00 0.000000e+00))
0.0875        	((7.039517e-02 -8.417716e-10 -1.166339e-22) (7.386378e-02 2.896993e-11 2.177707e-22) (0.000000e+00 0.000000e+00 0.000000e+00)) ((2.320308e-21 9.200019e-21 -9.935288e-15) (-1.659954e-23 9.471441e-21 2.130493e-11) (0.000000e+00 0.000000e+00 0.000000e+00))
0.09          	((6.987260e-02 -8.870841e-10 -1.383838e-22) (7.319149e-02 3.004462e-11 2.228013e-22) (0.000000e+00 0.000000e+00 0.000000e+00)) ((2.294927e-21 9.127892e-21 -1.696027e-14) (-1.732723e-23 9.385675e-21 2.192835e-11) (0.000000e+00 0.000000e+00 0.000000e+00))
0.0925        	((6.936212e-02 -7.397247e-10 -1.598990e-22) (7.253084e-02 3.124383e-11 2.278442e-22) (0.000000e+00 0.000000e+00 0.000000e+00)) ((2.270719e-21 9.057239e-21 -3.109148e-15) (-1.804170e-23 9.301321e-21 2.251688e-11) (0.000000e+00 0.000000e+00 0.000000e+00))
0.095         	((6.886676e-02 -8.098137e-10 -1.809046e-22) (7.188152e-02 3.211800e-11 2.328987e-22) (0.000000e+00 0.000000e+00 0.000000e+00)) ((2.247318e-21 8.988636e-21 -9.881259e-15) (-1.873612e-23 9.218343e-21 2.307184e-11) (0.000000e+00 0.000000e+00 0.000000e+00))
0.0975        	((6.838410e-02 -7.521972e-10 -2.015807e-22) (7.124323e-02 3.298227e-11 2.379683e-22) (0.000000e+00 0.000000e+00 0.000000e+00)) ((2.224776e-21 8.921660e-21 -7.655405e-15) (-1.941584e-23 9.136712e-21 2.359568e-11) (0.000000e+00 0.000000e+00 0.000000e+00))
0.1           	((6.791609e-02 -8.008458e-10 -2.217398e-22) (7.061570e-02 3.368933e-11 2.430502e-22) (0.000000e+00 0.000000e+00 0.000000e+00)) ((2.202832e-21 8.856702e-21 -1.105451e-14) (-2.007316e-23 9.056391e-21 2.408957e-11) (0.000000e+00 0.000000e+00 0.000000e+00))
0.1025        	((6.745996e-02 -7.441001e-10 -2.415818e-22) (6.999865e-02 3.451301e-11 2.481473e-22) (0.000000e+00 0.000000e+00 0.000000e+00)) ((2.181617e-21 8.793297e-21 -7.558352e-15) (-2.071400e-23 8.977354e-21 2.455575e-11) (0.000000e+00 0.000000e+00 0.000000e+00))
0.105         	((6.701729e-02 -7.810121e-10 -2.609415e-22) (6.939184e-02 3.514774e-11 2.532567e-22) (0.000000e+00 0.000000e+00 0.000000e+00)) ((2.160941e-21 8.731763e-21 -1.229294e-14) (-2.133208e-23 8.899568e-21 2.499546e-11) (0.000000e+00 0.000000e+00 0.000000e+00))
0.1075        	((6.658613e-02 -7.348105e-10 -2.799835e-22) (6.879502e-02 3.575321e-11 2.583794e-22) (0.000000e+00 0.000000e+00 0.000000e+00)) ((2.140852e-21 8.671748e-21 -6.137645e-15) (-2.193189e-23 8.823007e-21 2.540916e-11) (0.000000e+00 0.000000e+00 0.000000e+00))
0.11          	((6.617556e-02 -8.619318e-10 -2.983789e-22) (6.820791e-02 3.619707e-11 2.634942e-22) (0.000000e+00 0.000000e+00 0.000000e+00)) ((2.119139e-21 8.614483e-21 -1.949781e-14) (-2.254164e-23 8.747654e-21 2.579951e-11) (0.000000e+00 0.000000e+00 0.000000e+00))
0.1125        	((6.577101e-02 -6.527926e-10 -3.169047e-22) (6.763031e-02 3.685546e-11 2.686151e-22) (0.000000e+00 0.000000e+00 0.000000e+00)) ((2.099450e-21 8.558054e-21 -5.328610e-15) (-2.315639e-23 8.673469e-21 2.616815e-11) (0.000000e+00 0.000000e+00 0.000000e+00))
0.115         	((6.537668e-02 -6.885177e-10 -3.349970e-22) (6.706201e-02 3.741996e-11 2.737386e-22) (0.000000e+00 0.000000e+00 0.000000e+00)) ((2.080424e-21 8.503023e-21 -6.982327e-15) (-2.376084e-23 8.600429e-21 2.651385e-11) (0.000000e+00 0.000000e+00 0.000000e+00))
0.1175        	((6.499605e-02 -7.424565e-10 -3.529598e-22) (6.650278e-02 3.778516e-11 2.788657e-22) (0.000000e+00 0.000000e+00 0.000000e+00)) ((2.060843e-21 8.449991e-21 -1.042030e-14) (-2.434451e-23 8.528517e-21 2.683757e-11) (0.000000e+00 0.000000e+00 0.000000e+00))
0.12          	((6.462111e-02 -6.993831e-10 -3.705286e-22) (6.595246e-02 3.851414e-11 2.839912e-22) (0.000000e+00 0.000000e+00 0.000000e+00)) ((2.042753e-21 8.397631e-21 -2.773344e-15) (-2.492114e-23 8.457706e-21 2.714204e-11) (0.000000e+00 0.000000e+00 0.000000e+00))
0.1225        	((6.425853e-02 -7.920288e-10 -3.875377e-22) (6.541083e-02 3.883562e-11 2.891157e-22) (0.000000e+00 0.000000e+00 0.000000e+00)) ((2.024504e-21 8.347048e-21 -1.337380e-14) (-2.548276e-23 8.387974e-21 2.742827e-11) (0.000000e+00 0.000000e+00 0.000000e+00))
0.125         	((6.390281e-02 -8.436542e-10 -4.044205e-22) (6.487772e-02 3.924412e-11 2.942437e-22) (0.000000e+00 0.000000e+00 0.000000e+00)) ((2.007291e-21 8.297359e-21 1.973818e-14) (-2.603572e-23 8.319296e-21 2.769768e-11) (0.000000e+00 0.000000e+00 0.000000e+00))
0.1275        	((6.355729e-02 -6.058514e-10 -4.212715e-22) (6.435296e-02 3.950270e-11 2.993755e-22) (0.000000e+00 0.000000e+00 0.000000e+00)) ((1.989747e-21 8.249167e-21 -3.109733e-15) (-2.656607e-23 8.251666e-21 2.794921e-11) (0.000000e+00 0.000000e+00 0.000000e+00))
0.13          	((6.321982e-02 -8.075864e-10 -4.376566e-22) (6.383637e-02 4.010254e-11 3.045056e-22) (0.000000e+00 0.000000e+00 0.000000e+00)) ((1.973022e-21 8.202071e-21 -6.864990e-15) (-2.708750e-23 8.185050e-21 2.818479e-11) (0.000000e+00 0.000000e+00 0.000000e+00))
0.1325        	((6.289321e-02 -8.055428e-10 -4.534550e-22) (6.332777e-02 4.028131e-11 3.096297e-22) (0.000000e+00 0.000000e+00 0.000000e+00)) ((1.956301e-21 8.156545e-21 -6.008553e-15) (-2.759586e-23 8.119426e-21 2.840673e-11) (0.000000e+00 0.000000e+00 0.000000e+00))
0.135         	((6.257363e-02 -7.140016e-10 -4.690783e-22) (6.282702e-02 4.073249e-11 3.147511e-22) (0.000000e+00 0.000000e+00 0.000000e+00)) ((1.940206e-21 8.111994e-21 -9.627641e-15) (-2.809310e-23 8.054772e-21 2.861614e-11) (0.000000e+00 0.000000e+00 0.000000e+00))
0.1375        	((6.226253e-02 -7.388934e-10 -4.843921e-22) (6.233396e-02 4.096179e-11 3.198686e-22) (0.000000e+00 0.000000e+00 0.000000e+00)) ((1.924279e-21 8.068677e-21 -7.826823e-15) (-2.857496e-23 7.991072e-21 2.881181e-11) (0.000000e+00 0.000000e+00 0.000000e+00))
0.14          	((6.195849e-02 -7.070622e-10 -4.994781e-22) (6.184844e-02 4.130494e-11 3.249835e-22) (0.000000e+00 0.000000e+00 0.000000e+00)) ((1.908767e-21 8.026382e-21 -9.522068e-15) (-2.904130e-23 7.928307e-21 2.899579e-11) (0.000000e+00 0.000000e+00 0.000000e+00))
0.1425        	((6.167172e-02 -7.694903e-10 -5.144456e-22) (6.137025e-02 4.122858e-11 3.300676e-22) (0.000000e+00 0.000000e+00 0.000000e+00)) ((1.892763e-21 7.986138e-21 -2.622458e-15) (-2.952348e-23 7.866471e-21 2.916662e-11) (0.000000e+00 0.000000e+00 0.000000e+00))
0.145         	((6.139526e-02 -7.538574e-10 -5.286990e-22) (6.089923e-02 4.118082e-11 3.351083e-22) (0.000000e+00 0.000000e+00 0.000000e+00)) ((1.875909e-21 7.947456e-21 -4.224244e-15) (-3.004221e-23 7.805541e-21 2.932547e-11) (0.000000e+00 0.000000e+00 0.000000e+00))
0.1475        	((6.111316e-02 -6.458689e-10 -5.433140e-22) (6.043531e-02 4.170985e-11 3.401454e-22) (0.000000e+00 0.000000e+00 0.000000e+00)) ((1.862510e-21 7.908167e-21 -1.505027e-14) (-3.055363e-23 7.745482e-21 2.946974e-11) (0.000000e+00 0.000000e+00 0.000000e+00))
0.15          	((6.084535e-02 -6.885160e-10 -5.575058e-22) (5.997832e-02 4.181538e-11 3.451614e-22) (0.000000e+00 0.000000e+00 0.000000e+00)) ((1.846861e-21 7.870824e-21 -2.520448e-15) (-3.106534e-23 7.686300e-21 2.960782e-11) (0.000000e+00 0.000000e+00 0.000000e+00))
0.1525        	((6.057761e-02 -7.821064e-10 -5.711788e-22) (5.952818e-02 4.194103e-11 3.501651e-22) (0.000000e+00 0.000000e+00 0.000000e+00)) ((1.834064e-21 7.833610e-21 -1.354735e-14) (-3.156477e-23 7.627959e-21 2.973777e-11) (0.000000e+00 0.000000e+00 0.000000e+00))
0.155         	((6.032345e-02 -7.861321e-10 -5.843212e-22) (5.908471e-02 4.175716e-11 3.551463e-22) (0.000000e+00 0.000000e+00 0.000000e+00)) ((1.819415e-21 7.798248e-21 -4.665421e-15) (-3.206106e-23 7.570462e-21 2.985761e-11) (0.000000e+00 0.000000e+00 0.000000e+00))
0.1575        	((6.006918e-02 -6.945003e-10 -5.980506e-22) (5.864783e-02 4.206542e-11 3.601259e-22) (0.000000e+00 0.000000e+00 0.000000e+00)) ((1.806448e-21 7.762962e-21 -1.215610e-14) (-3.254477e-23 7.513781e-21 2.996541e-11) (0.000000e+00 0.000000e+00 0.000000e+00))
0.16          	((5.982532e-02 -8.248378e-10 -6.112814e-22) (5.821739e-02 4.209941e-11 3.650852e-22) (0.000000e+00 0.000000e+00 0.000000e+00)) ((1.792616e-21 7.729115e-21 -1.427657e-14) (-3.302228e-23 7.457911e-21 3.006838e-11) (0.000000e+00 0.000000e+00 0.000000e+00))
0.1625        	((5.958454e-02 -6.503769e-10 -6.245360e-22) (5.779329e-02 4.232165e-11 3.700313e-22) (0.000000e+00 0.000000e+00 0.000000e+00)) ((1.779648e-21 7.695747e-21 -7.742090e-15) (-3.348960e-23 7.402832e-21 3.016153e-11) (0.000000e+00 0.000000e+00 0.000000e+00))
0.165         	((5.934939e-02 -7.539858e-10 -6.377648e-22) (5.737539e-02 4.229623e-11 3.749625e-22) (0.000000e+00 0.000000e+00 0.000000e+00)) ((1.766390e-21 7.663190e-21 -1.456895e-14) (-3.394310e-23 7.348537e-21 3.025017e-11) (0.000000e+00 0.000000e+00 0.000000e+00))
0.1675        	((5.911938e-02 -7.037691e-10 -6.508244e-22) (5.696359e-02 4.257291e-11 3.798779e-22) (0.000000e+00 0.000000e+00 0.000000e+00)) ((1.753404e-21 7.631390e-21 -9.127785e-15) (-3.438663e-23 7.295012e-21 3.032675e-11) (0.000000e+00 0.000000e+00 0.000000e+00))
0.17          	((5.889635e-02 -7.497535e-10 -6.634506e-22) (5.655778e-02 4.292675e-11 3.847732e-22) (0.000000e+00 0.000000e+00 0.000000e+00)) ((1.740521e-21 7.600588e-21 -8.591541e-15) (-3.482549e-23 7.242238e-21 3.039863e-11) (0.000000e+00 0.000000e+00 0.000000e+00))
0.1725        	((5.868400e-02 -7.675711e-10 -6.755519e-22) (5.615783e-02 4.264825e-11 3.896290e-22) (0.000000e+00 0.000000e+00 0.000000e+00)) ((1.727443e-21 7.571113e-21 -9.191194e-15) (-3.527805e-23 7.190207e-21 3.046870e-11) (0.000000e+00 0.000000e+00 0.000000e+00))
0.175         	((5.847659e-02 -7.172433e-10 -6.874808e-22) (5.576362e-02 4.274511e-11 3.944545e-22) (0.000000e+00 0.000000e+00 0.000000e+00)) ((1.716373e-21 7.542307e-21 -1.206292e-14) (-3.572826e-23 7.138902e-21 3.053242e-11) (0.000000e+00 0.000000e+00 0.000000e+00))
0.1775        	((5.827945e-02 -7.233622e-10 -6.991811e-22) (5.537503e-02 4.259440e-11 3.992370e-22) (0.000000e+00 0.000000e+00 0.000000e+00)) ((1.706478e-21 7.514690e-21 -8.306065e-15) (-3.616938e-23 7.088316e-21 3.059102e-11) (0.000000e+00 0.000000e+00 0.000000e+00))
0.18          	((5.808095e-02 -6.974755e-10 -7.113355e-22) (5.499199e-02 4.284824e-11 4.040037e-22) (0.000000e+00 0.000000e+00 0.000000e+00)) ((1.695598e-21 7.487203e-21 -1.554578e-14) (-3.659982e-23 7.038424e-21 3.064620e-11) (0.000000e+00 0.000000e+00 0.000000e+00))
0.1825        	((5.788715e-02 -7.121550e-10 -7.229658e-22) (5.461441e-02 4.286391e-11 4.087368e-22) (0.000000e+00 0.000000e+00 0.000000e+00)) ((1.684699e-21 7.460405e-21 -1.030607e-14) (-3.702460e-23 6.989219e-21 3.069408e-11) (0.000000e+00 0.000000e+00 0.000000e+00))
0.185         	((5.769741e-02 -7.104235e-10 -7.344354e-22) (5.424221e-02 4.306808e-11 4.134456e-22) (0.000000e+00 0.000000e+00 0.000000e+00)) ((1.673997e-21 7.434235e-21 -9.396952e-15) (-3.744200e-23 6.940690e-21 3.073739e-11) (0.000000e+00 0.000000e+00 0.000000e+00))
0.1875        	((5.751278e-02 -7.199463e-10 -7.457289e-22) (5.387528e-02 4.317038e-11 4.181283e-22) (0.000000e+00 0.000000e+00 0.000000e+00)) ((1.663395e-21 7.408778e-21 -1.028335e-14) (-3.785261e-23 6.892827e-21 3.077597e-11) (0.000000e+00 0.000000e+00 0.000000e+00))
0.19          	((5.733220e-02 -7.219567e-10 -7.569133e-22) (5.351354e-02 4.328221e-11 4.227863e-22) (0.000000e+00 0.000000e+00 0.000000e+00)) ((1.652974e-21 7.383919e-21 -1.009186e-14) (-3.825601e-23 6.845619e-21 3.081131e-11) (0.000000e+00 0.000000e+00 0.000000e+00))
0.1925        	((5.715623e-02 -7.259046e-10 -7.679442e-22) (5.315689e-02 4.339662e-11 4.274177e-22) (0.000000e+00 0.000000e+00 0.000000e+00)) ((1.642694e-21 7.359713e-21 -1.043671e-14) (-3.865245e-23 6.799056e-21 3.084309e-11) (0.000000e+00 0.000000e+00 0.000000e+00))
0.195         	((5.698460e-02 -7.262886e-10 -7.788306e-22) (5.280526e-02 4.349051e-11 4.320221e-22) (0.000000e+00 0.000000e+00 0.000000e+00)) ((1.632577e-21 7.336129e-21 -1.100657e-14) (-3.904197e-23 6.753127e-21 3.087166e-11) (0.000000e+00 0.000000e+00 0.000000e+00))
0.1975        	((5.681729e-02 -7.262129e-10 -7.895703e-22) (5.245855e-02 4.359148e-11 4.365989e-22) (0.000000e+00 0.000000e+00 0.000000e+00)) ((1.622605e-21 7.313160e-21 -1.069706e-14) (-3.942463e-23 6.707821e-21 3.089760e-11) (0.000000e+00 0.000000e+00 0.000000e+00))
0.2           	((5.665419e-02 -7.280842e-10 -8.001648e-22) (5.211669e-02 4.369644e-11 4.411476e-22) (0.000000e+00 0.000000e+00 0.000000e+00)) ((1.612773e-21 7.290794e-21 -1.124473e-14) (-3.980057e-23 6.663128e-21 3.092119e-11) (0.000000e+00 0.000000e+00 0.000000e+00))
0.2025        	((5.649680e-02 -7.277668e-10 -8.105465e-22) (5.177957e-02 4.363368e-11 4.456633e-22) (0.000000e+00 0.000000e+00 0.000000e+00)) ((1.603525e-21 7.269163e-21 -1.131657e-14) (-4.016929e-23 6.619041e-21 3.094201e-11) (0.000000e+00 0.000000e+00 0.000000e+00))
0.205         	((5.635020e-02 -8.517154e-10 -8.204719e-22) (5.144709e-02 4.374506e-11 4.501288e-22) (0.000000e+00 0.000000e+00 0.000000e+00)) ((1.596141e-21 7.248743e-21 -1.563198e-14) (-4.052981e-23 6.575557e-21 3.096151e-11) (0.000000e+00 0.000000e+00 0.000000e+00))
0.2075        	((5.618908e-02 -4.036766e-10 -8.312857e-22) (5.111925e-02 4.412305e-11 4.545904e-22) (0.000000e+00 0.000000e+00 0.000000e+00)) ((1.584396e-21 7.227097e-21 -1.395264e-14) (-4.087334e-23 6.532632e-21 3.097922e-11) (0.000000e+00 0.000000e+00 0.000000e+00))
0.21          	((5.604587e-02 -9.561114e-10 -8.412973e-22) (5.079591e-02 4.402933e-11 4.590036e-22) (0.000000e+00 0.000000e+00 0.000000e+00)) ((1.576670e-21 7.207324e-21 -7.760334e-15) (-4.121073e-23 6.490298e-21 3.099786e-11) (0.000000e+00 0.000000e+00 0.000000e+00))
0.2125        	((5.590607e-02 -7.192811e-10 -8.511154e-22) (5.047698e-02 4.407961e-11 4.633948e-22) (0.000000e+00 0.000000e+00 0.000000e+00)) ((1.568843e-21 7.187881e-21 -1.637635e-14) (-4.156321e-23 6.448528e-21 3.101339e-11) (0.000000e+00 0.000000e+00 0.000000e+00))
0.215         	((5.577651e-02 -7.973644e-10 -8.605988e-22) (5.016237e-02 4.397413e-11 4.677385e-22) (0.000000e+00 0.000000e+00 0.000000e+00)) ((1.563081e-21 7.169649e-21 -8.200297e-15) (-4.190941e-23 6.407324e-21 3.102822e-11) (0.000000e+00 0.000000e+00 0.000000e+00))
0.2175        	((5.564128e-02 -6.461530e-10 -8.703120e-22) (4.985206e-02 4.429271e-11 4.720596e-22) (0.000000e+00 0.000000e+00 0.000000e+00)) ((1.554512e-21 7.151175e-21 -1.958282e-14) (-4.224682e-23 6.366653e-21 3.103888e-11) (0.000000e+00 0.000000e+00 0.000000e+00))
0.22          	((5.551302e-02 -7.621297e-10 -8.797387e-22) (4.954596e-02 4.414812e-11 4.763427e-22) (0.000000e+00 0.000000e+00 0.000000e+00)) ((1.547264e-21 7.133531e-21 -9.079054e-15) (-4.257935e-23 6.326524e-21 3.105037e-11) (0.000000e+00 0.000000e+00 0.000000e+00))
0.2225        	((5.538609e-02 -6.684131e-10 -8.896456e-22) (4.924402e-02 4.443673e-11 4.806067e-22) (0.000000e+00 0.000000e+00 0.000000e+00)) ((1.539479e-21 7.116193e-21 -2.043403e-14) (-4.290491e-23 6.286921e-21 3.105832e-11) (0.000000e+00 0.000000e+00 0.000000e+00))
0.225         	((5.526371e-02 -8.140591e-10 -8.992247e-22) (4.894617e-02 4.437018e-11 4.848336e-22) (0.000000e+00 0.000000e+00 0.000000e+00)) ((1.532180e-21 7.099456e-21 -1.247314e-14) (-4.322442e-23 6.247841e-21 3.106578e-11) (0.000000e+00 0.000000e+00 0.000000e+00))
0.2275        	((5.514482e-02 -8.080933e-10 -9.084521e-22) (4.865235e-02 4.435348e-11 4.890231e-22) (0.000000e+00 0.000000e+00 0.000000e+00)) ((1.524962e-21 7.083231e-21 -1.542070e-14) (-4.353714e-23 6.209274e-21 3.107275e-11) (0.000000e+00 0.000000e+00 0.000000e+00))
0.23          	((5.502816e-02 -6.190185e-10 -9.182661e-22) (4.836249e-02 4.467905e-11 4.931915e-22) (0.000000e+00 0.000000e+00 0.000000e+00)) ((1.517773e-21 7.067319e-21 -1.542488e-14) (-4.384163e-23 6.171213e-21 3.107648e-11) (0.000000e+00 0.000000e+00 0.000000e+00))
0.2325        	((5.491500e-02 -7.893793e-10 -9.279048e-22) (4.807652e-02 4.471368e-11 4.973259e-22) (0.000000e+00 0.000000e+00 0.000000e+00)) ((1.510745e-21 7.051902e-21 -1.216862e-14) (-4.413862e-23 6.133650e-21 3.107961e-11) (0.000000e+00 0.000000e+00 0.000000e+00))
0.235         	((5.480542e-02 -8.590481e-10 -9.371508e-22) (4.779440e-02 4.469715e-11 5.014220e-22) (0.000000e+00 0.000000e+00 0.000000e+00)) ((1.503921e-21 7.036989e-21 -1.571711e-14) (-4.442796e-23 6.096578e-21 3.108208e-11) (0.000000e+00 0.000000e+00 0.000000e+00))
0.2375        	((5.469902e-02 -7.821303e-10 -9.462568e-22) (4.751605e-02 4.469663e-11 5.054838e-22) (0.000000e+00 0.000000e+00 0.000000e+00)) ((1.497226e-21 7.022528e-21 -1.333599e-14) (-4.470911e-23 6.059989e-21 3.108413e-11) (0.000000e+00 0.000000e+00 0.000000e+00))
0.24          	((5.460600e-02 -8.985073e-10 -9.549441e-22) (4.724134e-02 4.430267e-11 5.095030e-22) (0.000000e+00 0.000000e+00 0.000000e+00)) ((1.494212e-21 7.009159e-21 -6.953990e-15) (-4.500343e-23 6.023893e-21 3.108617e-11) (0.000000e+00 0.000000e+00 0.000000e+00))
0.2425        	((5.449672e-02 -5.439150e-10 -9.641947e-22) (4.697036e-02 4.498282e-11 5.134989e-22) (0.000000e+00 0.000000e+00 0.000000e+00)) ((1.484574e-21 6.995014e-21 -1.351171e-14) (-4.525368e-23 5.988237e-21 3.108412e-11) (0.000000e+00 0.000000e+00 0.000000e+00))
0.245         	((5.440751e-02 -1.026146e-09 -9.728140e-22) (4.670292e-02 4.466108e-11 5.174505e-22) (0.000000e+00 0.000000e+00 0.000000e+00)) ((1.481324e-21 6.982287e-21 -1.110849e-14) (-4.552717e-23 5.953070e-21 3.108491e-11) (0.000000e+00 0.000000e+00 0.000000e+00))
0.2475        	((5.430455e-02 -5.354722e-10 -9.819032e-22) (4.643908e-02 4.492104e-11 5.213758e-22) (0.000000e+00 0.000000e+00 0.000000e+00)) ((1.472290e-21 6.968941e-21 -8.074526e-15) (-4.575774e-23 5.918331e-21 3.108172e-11) (0.000000e+00 0.000000e+00 0.000000e+00))
0.25          	((5.421533e-02 -9.532919e-10 -9.906215e-22) (4.617870e-02 4.474864e-11 5.252598e-22) (0.000000e+00 0.000000e+00 0.000000e+00)) ((1.467644e-21 6.956556e-21 -1.880092e-14) (-4.599474e-23 5.884056e-21 3.107502e-11) (0.000000e+00 0.000000e+00 0.000000e+00))
0.2525        	((5.411848e-02 -6.398963e-10 -9.996379e-22) (4.592178e-02 4.487132e-11 5.291131e-22) (0.000000e+00 0.000000e+00 0.000000e+00)) ((1.459552e-21 6.943885e-21 -1.909007e-14) (-4.619465e-23 5.850204e-21 3.107281e-11) (0.000000e+00 0.000000e+00 0.000000e+00))
0.255         	((5.404727e-02 -1.263404e-09 -1.007344e-21) (4.566818e-02 4.422275e-11 5.329326e-22) (0.000000e+00 0.000000e+00 0.000000e+00)) ((1.457445e-21 6.933282e-21 -7.482084e-15) (-4.646552e-23 5.816815e-21 3.106686e-11) (0.000000e+00 0.000000e+00 0.000000e+00))
0.2575        	((5.396590e-02 -4.606980e-10 -1.015724e-21) (4.541788e-02 4.453287e-11 5.367216e-22) (0.000000e+00 0.000000e+00 0.000000e+00)) ((1.452719e-21 6.922024e-21 -1.908985e-14) (-4.671723e-23 5.783841e-21 3.106452e-11) (0.000000e+00 0.000000e+00 0.000000e+00))
0.26          	((5.388575e-02 -7.850511e-10 -1.024052e-21) (4.517085e-02 4.448938e-11 5.404772e-22) (0.000000e+00 0.000000e+00 0.000000e+00)) ((1.447612e-21 6.911061e-21 -1.276244e-14) (-4.695979e-23 5.751288e-21 3.105741e-11) (0.000000e+00 0.000000e+00 0.000000e+00))
0.2625        	((5.380709e-02 -8.074603e-10 -1.032312e-21) (4.492704e-02 4.453075e-11 5.441985e-22) (0.000000e+00 0.000000e+00 0.000000e+00)) ((1.442258e-21 6.900364e-21 -9.857158e-15) (-4.719327e-23 5.719149e-21 3.105112e-11) (0.000000e+00 0.000000e+00 0.000000e+00))
0.265         	((5.373097e-02 -8.211054e-10 -1.040427e-21) (4.468641e-02 4.457648e-11 5.478837e-22) (0.000000e+00 0.000000e+00 0.000000e+00)) ((1.436958e-21 6.890012e-21 -1.200221e-14) (-4.741916e-23 5.687419e-21 3.104804e-11) (0.000000e+00 0.000000e+00 0.000000e+00))
0.2675        	((5.365700e-02 -8.319527e-10 -1.048349e-21) (4.444889e-02 4.453688e-11 5.515313e-22) (0.000000e+00 0.000000e+00 0.000000e+00)) ((1.431676e-21 6.879957e-21 -1.207328e-14) (-4.763731e-23 5.656091e-21 3.104518e-11) (0.000000e+00 0.000000e+00 0.000000e+00))
0.27          	((5.358487e-02 -7.363398e-10 -1.056611e-21) (4.421445e-02 4.455540e-11 5.551528e-22) (0.000000e+00 0.000000e+00 0.000000e+00)) ((1.426417e-21 6.870153e-21 -1.363057e-14) (-4.784781e-23 5.625161e-21 3.104249e-11) (0.000000e+00 0.000000e+00 0.000000e+00))
0.2725        	((5.351456e-02 -7.910393e-10 -1.064680e-21) (4.398303e-02 4.447986e-11 5.587366e-22) (0.000000e+00 0.000000e+00 0.000000e+00)) ((1.421194e-21 6.860593e-21 -1.064528e-14) (-4.805084e-23 5.594621e-21 3.103908e-11) (0.000000e+00 0.000000e+00 0.000000e+00))
0.275         	((5.344630e-02 -7.939083e-10 -1.072539e-21) (4.375460e-02 4.436866e-11 5.622823e-22) (0.000000e+00 0.000000e+00 0.000000e+00)) ((1.416020e-21 6.851309e-21 -1.370323e-14) (-4.824667e-23 5.564468e-21 3.103627e-11) (0.000000e+00 0.000000e+00 0.000000e+00))
0.2775        	((5.338002e-02 -7.783065e-10 -1.080312e-21) (4.352910e-02 4.423180e-11 5.657926e-22) (0.000000e+00 0.000000e+00 0.000000e+00)) ((1.410892e-21 6.842290e-21 -1.421727e-14) (-4.843540e-23 5.534693e-21 3.103303e-11) (0.000000e+00 0.000000e+00 0.000000e+00))