/*--------------------------------*- C++ -*----------------------------------*\
  =========                 |
  \\      /  F ield         | OpenFOAM: The Open Source CFD Toolbox
   \\    /   O peration     | Website:  https://openfoam.org
    \\  /    A nd           | Version:  7
     \\/     M anipulation  |
\*---------------------------------------------------------------------------*/
FoamFile
{
    version     2.0;
    format      ascii;
    class       volScalarField;
    location    "10";
    object      p;
}
// * * * * * * * * * * * * * * * * * * * * * * * * * * * * * * * * * * * * * //

dimensions      [0 2 -2 0 0 0 0];

internalField   nonuniform List<scalar> 
6050
(
-0.321906
-0.327436
-0.329289
-0.332713
-0.336543
-0.341157
-0.346456
-0.322312
-0.327735
-0.329574
-0.332979
-0.336799
-0.341407
-0.346708
-0.323105
-0.328319
-0.330127
-0.333489
-0.337284
-0.341873
-0.34717
-0.324254
-0.329161
-0.330917
-0.334204
-0.337948
-0.342495
-0.347764
-0.325714
-0.330226
-0.331898
-0.335069
-0.338724
-0.343189
-0.348388
-0.327431
-0.331472
-0.333019
-0.33602
-0.339536
-0.343863
-0.348935
-0.35481
-0.329349
-0.332853
-0.334225
-0.336994
-0.340307
-0.34443
-0.349303
-0.354987
-0.331412
-0.334327
-0.335466
-0.33793
-0.340967
-0.344812
-0.349411
-0.354822
-0.333566
-0.335856
-0.336697
-0.338777
-0.341463
-0.344956
-0.349208
-0.354276
-0.33577
-0.337408
-0.337883
-0.339502
-0.34176
-0.344835
-0.348681
-0.353349
-0.337993
-0.338964
-0.339004
-0.340085
-0.341849
-0.344448
-0.347846
-0.352084
-0.340217
-0.340513
-0.340052
-0.340528
-0.341741
-0.343827
-0.346754
-0.350549
-0.355206
-0.34244
-0.342052
-0.34104
-0.340849
-0.341471
-0.343021
-0.345473
-0.348826
-0.353033
-0.344677
-0.343592
-0.341988
-0.341086
-0.34109
-0.342099
-0.344079
-0.346988
-0.350706
-0.346956
-0.345162
-0.342925
-0.341284
-0.340661
-0.341132
-0.342643
-0.345082
-0.348222
-0.349319
-0.346792
-0.343895
-0.341502
-0.340253
-0.340189
-0.341213
-0.343113
-0.345525
-0.347917
-0.351819
-0.348522
-0.344952
-0.341801
-0.33993
-0.339322
-0.339808
-0.341045
-0.342521
-0.343612
-0.354517
-0.350399
-0.34615
-0.342243
-0.339748
-0.338561
-0.338413
-0.338809
-0.33911
-0.338673
-0.336921
-0.357478
-0.352475
-0.347546
-0.342882
-0.339742
-0.337907
-0.336982
-0.336319
-0.335214
-0.333098
-0.329578
-0.360774
-0.354802
-0.349192
-0.343753
-0.339922
-0.337336
-0.33545
-0.333495
-0.330798
-0.326949
-0.321769
-0.315285
-0.364482
-0.357426
-0.351124
-0.344869
-0.340271
-0.336803
-0.33374
-0.330275
-0.325871
-0.320329
-0.313658
-0.305987
-0.368646
-0.360401
-0.353397
-0.346253
-0.3408
-0.336278
-0.331797
-0.326639
-0.32049
-0.313358
-0.305387
-0.296746
-0.287537
-0.373331
-0.36377
-0.356022
-0.347887
-0.341478
-0.335684
-0.329544
-0.322573
-0.314714
-0.306137
-0.297055
-0.287627
-0.277921
-0.378594
-0.367573
-0.358992
-0.349768
-0.342268
-0.334934
-0.326927
-0.318096
-0.308614
-0.298751
-0.288727
-0.278656
-0.268561
-0.258427
-0.384477
-0.371838
-0.362293
-0.351909
-0.343103
-0.333938
-0.323916
-0.313239
-0.302252
-0.291258
-0.280434
-0.269834
-0.259428
-0.249162
-0.238964
-0.39102
-0.376577
-0.365918
-0.354317
-0.343881
-0.332616
-0.320496
-0.308037
-0.295678
-0.283691
-0.272184
-0.26114
-0.250484
-0.240127
-0.229988
-0.220037
-0.398253
-0.38177
-0.369892
-0.35695
-0.344485
-0.330903
-0.316666
-0.30252
-0.28892
-0.276063
-0.263966
-0.252549
-0.24169
-0.231275
-0.22121
-0.211445
-0.2019
-0.406195
-0.387373
-0.37427
-0.3597
-0.344801
-0.328752
-0.312431
-0.296711
-0.281994
-0.268369
-0.255761
-0.244025
-0.233004
-0.222558
-0.212582
-0.203007
-0.193766
-0.184938
-0.414838
-0.393324
-0.379099
-0.362409
-0.344723
-0.326127
-0.307794
-0.290619
-0.274898
-0.260594
-0.247541
-0.235535
-0.224386
-0.213933
-0.204059
-0.194678
-0.185729
-0.177243
-0.169032
-0.161638
-0.424131
-0.39957
-0.384356
-0.364911
-0.344158
-0.323001
-0.302754
-0.284244
-0.267621
-0.252717
-0.239276
-0.227044
-0.215798
-0.205362
-0.1956
-0.186416
-0.177747
-0.169585
-0.161785
-0.154795
-0.433962
-0.40608
-0.389896
-0.367053
-0.343024
-0.319345
-0.297302
-0.277575
-0.260145
-0.24471
-0.230935
-0.218517
-0.207206
-0.196807
-0.18717
-0.178186
-0.169787
-0.161932
-0.154518
-0.147894
-0.444151
-0.412846
-0.395454
-0.368693
-0.341252
-0.315131
-0.291423
-0.270594
-0.252443
-0.236545
-0.222486
-0.209923
-0.198578
-0.188238
-0.178737
-0.169958
-0.16182
-0.154259
-0.147208
-0.140916
-0.454458
-0.41986
-0.40069
-0.36969
-0.338782
-0.310328
-0.285094
-0.263278
-0.24449
-0.228191
-0.2139
-0.201232
-0.189885
-0.179626
-0.170276
-0.161706
-0.153822
-0.146546
-0.139836
-0.133848
-0.464613
-0.427079
-0.40526
-0.369901
-0.335559
-0.304906
-0.27829
-0.255596
-0.236254
-0.219619
-0.205148
-0.192418
-0.181101
-0.170946
-0.161761
-0.153406
-0.145774
-0.138777
-0.13239
-0.126679
-0.47434
-0.43439
-0.408869
-0.369181
-0.331529
-0.298831
-0.270978
-0.247519
-0.227708
-0.210802
-0.196204
-0.183455
-0.172202
-0.162177
-0.153174
-0.145041
-0.137659
-0.130937
-0.124857
-0.119403
-0.483381
-0.441584
-0.411298
-0.367397
-0.326636
-0.292071
-0.263127
-0.239016
-0.21882
-0.201714
-0.187045
-0.174322
-0.163169
-0.1533
-0.144497
-0.136596
-0.129467
-0.123018
-0.11723
-0.112014
-0.491505
-0.44836
-0.412389
-0.364434
-0.320827
-0.28459
-0.254703
-0.230056
-0.209566
-0.19233
-0.17765
-0.165001
-0.153985
-0.144301
-0.135718
-0.12806
-0.121189
-0.115014
-0.109506
-0.104512
-0.498519
-0.454343
-0.412032
-0.360202
-0.314047
-0.276353
-0.245678
-0.220611
-0.19992
-0.182631
-0.168001
-0.155476
-0.144637
-0.135168
-0.126826
-0.119426
-0.112819
-0.10692
-0.101681
-0.0969003
-0.504249
-0.459129
-0.410138
-0.354638
-0.306255
-0.267331
-0.236024
-0.21066
-0.189864
-0.1726
-0.158085
-0.145736
-0.135115
-0.125892
-0.117815
-0.110687
-0.104355
-0.0987354
-0.0937572
-0.0891847
-0.508511
-0.462312
-0.406617
-0.347699
-0.297415
-0.257498
-0.22572
-0.200182
-0.179383
-0.162225
-0.14789
-0.135771
-0.125411
-0.116468
-0.10868
-0.101841
-0.0957971
-0.0904612
-0.0857381
-0.0813735
-0.511104
-0.463535
-0.401366
-0.339345
-0.287488
-0.246819
-0.214741
-0.189157
-0.168459
-0.151493
-0.137408
-0.125573
-0.115519
-0.106892
-0.0994174
-0.0928876
-0.0871451
-0.0821037
-0.0776349
-0.0734715
-0.512047
-0.462621
-0.394326
-0.329543
-0.276439
-0.235264
-0.20306
-0.177569
-0.15708
-0.140394
-0.126629
-0.115137
-0.105436
-0.0971601
-0.0900291
-0.083827
-0.0784014
-0.0736731
-0.0694629
-0.0654823
-0.511123
-0.459322
-0.385402
-0.318264
-0.264247
-0.222816
-0.190668
-0.165407
-0.145239
-0.128922
-0.115552
-0.104463
-0.095161
-0.0872751
-0.0805214
-0.0746675
-0.069574
-0.0651782
-0.0612239
-0.0574274
-0.50815
-0.453498
-0.374545
-0.305496
-0.250903
-0.209465
-0.177553
-0.152665
-0.132933
-0.117078
-0.104177
-0.0935581
-0.0847024
-0.0772418
-0.0709017
-0.0654203
-0.0606877
-0.0566165
-0.0529075
-0.049336
-0.502951
-0.445054
-0.361714
-0.291229
-0.236401
-0.195201
-0.16371
-0.139342
-0.12016
-0.104875
-0.0925151
-0.0824311
-0.0740717
-0.0670783
-0.0611647
-0.0560902
-0.0517404
-0.0480008
-0.0445417
-0.0412165
-0.495343
-0.43393
-0.346889
-0.275462
-0.220738
-0.18002
-0.149141
-0.125449
-0.106937
-0.0923295
-0.0805885
-0.0710798
-0.0632687
-0.0567827
-0.0513293
-0.0466874
-0.0427399
-0.0393447
-0.0361462
-0.0330826
-0.485142
-0.420096
-0.330066
-0.258197
-0.203907
-0.163928
-0.133873
-0.111016
-0.0933056
-0.0794288
-0.0683892
-0.0595204
-0.0523056
-0.046366
-0.0414081
-0.0372242
-0.0336986
-0.0306622
-0.0277369
-0.0249518
-0.472178
-0.403544
-0.311259
-0.239438
-0.185902
-0.146971
-0.117959
-0.0960538
-0.0792453
-0.0661987
-0.055933
-0.0477683
-0.0411975
-0.035843
-0.0314144
-0.0277147
-0.0246309
-0.0219678
-0.0193294
-0.0168422
-0.456301
-0.384284
-0.290493
-0.219207
-0.16677
-0.129236
-0.101371
-0.0805704
-0.064781
-0.0526611
-0.0432408
-0.0358408
-0.0299612
-0.0252301
-0.0213631
-0.0181739
-0.015552
-0.0132768
-0.0109398
-0.00877189
-0.437395
-0.362336
-0.267796
-0.197578
-0.146675
-0.110627
-0.084144
-0.0645974
-0.0499413
-0.0388406
-0.0303361
-0.0237581
-0.0186158
-0.0145453
-0.0112712
-0.0086183
-0.00647785
-0.00460556
-0.00258611
-0.000759248
-0.415387
-0.337761
-0.243176
-0.174678
-0.125573
-0.0912254
-0.0663186
-0.0481714
-0.0347592
-0.024765
-0.0172446
-0.0115434
-0.00718234
-0.00380846
-0.00115722
0.00093451
0.00257436
0.00402804
0.00571165
0.00717665
-0.390253
-0.310723
-0.216639
-0.150538
-0.103509
-0.0710951
-0.0479424
-0.0313337
-0.0192711
-0.0104662
-0.00399493
0.000777777
0.00431607
0.00695941
0.0089592
0.0104661
0.0115868
0.0126045
0.0139314
0.0150153
-0.362021
-0.281476
-0.188326
-0.125049
-0.0805445
-0.0503038
-0.0290701
-0.0141308
-0.00351769
0.0040202
0.00938141
0.0131775
0.0158544
0.0177356
0.0190573
0.0199577
0.0205419
0.0211054
0.0220516
0.0227357
-0.330773
-0.250047
-0.158344
-0.0983753
-0.0567596
-0.0289223
-0.00976309
0.00338582
0.0124562
0.0186553
0.0228503
0.0256255
0.027406
0.028496
0.029115
0.0293897
0.0294236
0.0295163
0.0300561
0.0303196
-0.296668
-0.215789
-0.127397
-0.0707055
-0.032243
-0.00702611
0.00991217
0.0211596
0.0286021
0.0333969
0.0363749
0.0380897
0.038942
0.0392144
0.0391084
0.0387414
0.0382168
0.0378281
0.0379364
0.0377553
-0.259949
-0.179157
-0.0952241
-0.0421935
-0.00709954
0.0153024
0.0298839
0.0391293
0.0448675
0.0481997
0.049916
0.0505358
0.0504325
0.0498635
0.0490122
0.0479916
0.0469062
0.0460275
0.0456742
0.0450247
-0.220661
-0.140659
-0.0618612
-0.0129714
0.0185545
0.0379729
0.0500755
0.0572295
0.0611967
0.0630159
0.0634324
0.0629281
0.0618456
0.060415
0.0588025
0.0571217
0.055475
0.0540831
0.0532005
0.0520452
-0.178485
-0.101287
-0.0275094
0.0168336
0.0445978
0.0608877
0.0704051
0.0753912
0.0775308
0.0777951
0.0768809
0.0752291
0.0731489
0.0708413
0.0684585
0.0661192
0.063909
0.0619432
0.0603753
0.0585897
-0.13421
-0.0609481
0.00760043
0.0470777
0.0709033
0.0839426
0.0907867
0.0935419
0.0938087
0.0924855
0.0902169
0.0874003
0.0843089
0.0811151
0.0779624
0.0749752
0.0721936
0.0695553
0.0670704
0.0644452
-0.0880945
-0.0197281
0.0432366
0.077599
0.0973381
0.107029
0.111131
0.111607
0.109968
0.107034
0.103395
0.0994024
0.0952918
0.0912097
0.0872948
0.0836696
0.0802961
0.0768851
0.0733508
0.0701337
-0.0403493
0.0221785
0.0791808
0.108235
0.12377
0.130038
0.131347
0.129511
0.125943
0.121385
0.116367
0.111194
0.106063
0.101097
0.0964299
0.0921629
0.0881565
0.0839355
0.0795091
0.0771845
0.00824205
0.0644691
0.115223
0.138829
0.150071
0.15286
0.151343
0.147175
0.141669
0.135482
0.129086
0.122734
0.116587
0.110749
0.105337
0.100411
0.0957329
0.0907999
0.0859678
0.0841078
0.0573518
0.106877
0.151133
0.169195
0.176091
0.175376
0.171021
0.164518
0.157076
0.149267
0.1415
0.133979
0.12683
0.120132
0.113983
0.108389
0.103052
0.0975461
0.0924907
0.0906122
0.106589
0.149092
0.186676
0.199152
0.201686
0.197467
0.190282
0.181458
0.172097
0.162682
0.153562
0.144889
0.136754
0.129214
0.122335
0.116075
0.11012
0.104147
0.0988778
0.0967061
0.155545
0.190804
0.22162
0.228517
0.226709
0.219014
0.20903
0.197915
0.186663
0.17567
0.165222
0.15542
0.146324
0.13796
0.130364
0.123455
0.116928
0.110541
0.105017
0.102431
0.203808
0.231703
0.255732
0.257109
0.251016
0.2399
0.227168
0.213808
0.200707
0.188174
0.176431
0.165533
0.155502
0.146339
0.138043
0.130511
0.123454
0.116681
0.110865
0.107815
0.250975
0.271486
0.288784
0.284748
0.274462
0.260008
0.244599
0.229058
0.214163
0.200137
0.187143
0.175185
0.164254
0.154318
0.145349
0.137222
0.129669
0.122527
0.116402
0.11287
0.296648
0.309853
0.32055
0.311256
0.296906
0.279224
0.26123
0.243586
0.226965
0.211506
0.197309
0.184337
0.172544
0.161869
0.152255
0.143567
0.135547
0.12805
0.121613
0.117596
0.340445
0.346518
0.350813
0.336464
0.318212
0.297437
0.276972
0.257319
0.239052
0.222226
0.206887
0.19295
0.180339
0.168962
0.158738
0.14952
0.141063
0.133231
0.126487
0.121991
0.382
0.381202
0.379365
0.360207
0.33825
0.314542
0.291736
0.270185
0.250363
0.232248
0.215832
0.200988
0.187606
0.17557
0.164774
0.155061
0.146196
0.13805
0.13101
0.126049
0.420972
0.413637
0.406007
0.382328
0.356895
0.330438
0.305442
0.282115
0.26084
0.241523
0.224103
0.208414
0.194316
0.181666
0.170339
0.160167
0.150927
0.14249
0.135171
0.129764
0.457041
0.443571
0.430552
0.402683
0.37403
0.345032
0.318012
0.293046
0.270432
0.250008
0.231664
0.215197
0.200441
0.187228
0.175413
0.164821
0.155237
0.146535
0.138956
0.133128
0.489909
0.470776
0.452826
0.421135
0.389548
0.358235
0.329374
0.302919
0.279089
0.257659
0.238478
0.221307
0.205955
0.192231
0.179975
0.169003
0.159111
0.150171
0.142354
0.136135
0.5193
0.495046
0.472674
0.437561
0.40335
0.369968
0.339463
0.31168
0.286766
0.26444
0.244513
0.226715
0.210833
0.196656
0.184007
0.172698
0.162534
0.153384
0.145353
0.13878
0.544968
0.516197
0.489954
0.451851
0.415348
0.380161
0.348222
0.319281
0.293422
0.270317
0.24974
0.231398
0.215055
0.200484
0.187494
0.175892
0.165492
0.156162
0.147944
0.141055
0.566699
0.53407
0.504545
0.463908
0.425465
0.388751
0.3556
0.32568
0.299023
0.27526
0.254136
0.235334
0.218601
0.203698
0.190421
0.178573
0.167975
0.158493
0.150116
0.142957
0.584308
0.548531
0.516343
0.473652
0.433637
0.395686
0.361554
0.330842
0.30354
0.279244
0.257677
0.238504
0.221458
0.206286
0.192777
0.180731
0.169974
0.160369
0.151864
0.144483
0.597648
0.559472
0.525263
0.481016
0.43981
0.400923
0.366049
0.334737
0.306948
0.28225
0.260348
0.240894
0.223611
0.208237
0.194552
0.182356
0.171479
0.161783
0.15318
0.145629
0.606606
0.56681
0.531243
0.485951
0.443946
0.404431
0.369059
0.337346
0.309229
0.284261
0.262135
0.242493
0.225052
0.209542
0.195739
0.183443
0.172485
0.162728
0.15406
0.146394
0.611107
0.570493
0.534243
0.488426
0.44602
0.40619
0.370568
0.338653
0.310372
0.285269
0.263031
0.243295
0.225773
0.210195
0.196334
0.183987
0.17299
0.163202
0.154501
0.146776
0.611107
0.570493
0.534243
0.488426
0.44602
0.40619
0.370568
0.338653
0.310372
0.285269
0.263031
0.243295
0.225773
0.210195
0.196334
0.183987
0.17299
0.163202
0.154501
0.146776
0.606606
0.56681
0.531243
0.485951
0.443946
0.404431
0.369059
0.337346
0.309229
0.284261
0.262135
0.242493
0.225052
0.209542
0.195739
0.183443
0.172485
0.162728
0.15406
0.146394
0.597648
0.559472
0.525263
0.481016
0.43981
0.400923
0.366049
0.334737
0.306948
0.28225
0.260348
0.240894
0.223611
0.208237
0.194552
0.182356
0.171479
0.161783
0.15318
0.145629
0.584308
0.548531
0.516343
0.473652
0.433637
0.395686
0.361554
0.330842
0.30354
0.279244
0.257677
0.238504
0.221458
0.206286
0.192777
0.180731
0.169974
0.160369
0.151864
0.144483
0.566699
0.53407
0.504545
0.463908
0.425465
0.388751
0.3556
0.32568
0.299023
0.27526
0.254136
0.235334
0.218601
0.203698
0.190421
0.178573
0.167975
0.158493
0.150116
0.142957
0.544968
0.516196
0.489954
0.451851
0.415348
0.380161
0.348222
0.319281
0.293422
0.270317
0.24974
0.231398
0.215055
0.200484
0.187494
0.175892
0.165492
0.156162
0.147944
0.141055
0.5193
0.495046
0.472674
0.437561
0.40335
0.369968
0.339463
0.31168
0.286766
0.26444
0.244513
0.226715
0.210833
0.196656
0.184007
0.172698
0.162534
0.153384
0.145353
0.13878
0.489909
0.470776
0.452826
0.421135
0.389548
0.358235
0.329374
0.302919
0.279089
0.257659
0.238478
0.221307
0.205955
0.192231
0.179975
0.169003
0.159111
0.150171
0.142354
0.136135
0.457041
0.443571
0.430552
0.402683
0.37403
0.345032
0.318012
0.293046
0.270432
0.250008
0.231664
0.215197
0.200441
0.187228
0.175413
0.164821
0.155237
0.146535
0.138956
0.133128
0.420972
0.413637
0.406007
0.382328
0.356895
0.330438
0.305442
0.282115
0.26084
0.241523
0.224103
0.208414
0.194316
0.181666
0.170339
0.160167
0.150927
0.14249
0.135171
0.129764
0.382
0.381202
0.379365
0.360207
0.33825
0.314542
0.291736
0.270185
0.250363
0.232248
0.215832
0.200988
0.187606
0.17557
0.164774
0.155061
0.146196
0.13805
0.13101
0.126049
0.340445
0.346518
0.350813
0.336464
0.318212
0.297437
0.276972
0.257319
0.239052
0.222226
0.206887
0.19295
0.180339
0.168962
0.158738
0.14952
0.141063
0.133231
0.126487
0.121991
0.296648
0.309853
0.32055
0.311256
0.296906
0.279224
0.26123
0.243586
0.226965
0.211506
0.197309
0.184337
0.172544
0.161869
0.152255
0.143567
0.135547
0.12805
0.121613
0.117596
0.250975
0.271486
0.288784
0.284748
0.274461
0.260008
0.244599
0.229058
0.214163
0.200137
0.187143
0.175185
0.164254
0.154318
0.145349
0.137222
0.129669
0.122527
0.116402
0.11287
0.203808
0.231703
0.255732
0.257109
0.251016
0.2399
0.227168
0.213808
0.200707
0.188174
0.176431
0.165533
0.155502
0.146339
0.138043
0.130511
0.123454
0.116681
0.110865
0.107815
0.155545
0.190804
0.22162
0.228517
0.226709
0.219014
0.20903
0.197915
0.186663
0.17567
0.165222
0.15542
0.146324
0.13796
0.130364
0.123455
0.116928
0.110541
0.105017
0.102431
0.106589
0.149092
0.186676
0.199152
0.201686
0.197467
0.190282
0.181458
0.172097
0.162682
0.153562
0.144889
0.136754
0.129214
0.122335
0.116075
0.11012
0.104147
0.0988778
0.0967061
0.0573517
0.106877
0.151133
0.169195
0.176091
0.175376
0.171021
0.164518
0.157076
0.149267
0.1415
0.133979
0.12683
0.120132
0.113983
0.108389
0.103052
0.0975461
0.0924907
0.0906122
0.00824203
0.064469
0.115223
0.138829
0.150071
0.15286
0.151343
0.147175
0.141669
0.135482
0.129086
0.122734
0.116587
0.110749
0.105337
0.100411
0.0957329
0.0907999
0.0859678
0.0841078
-0.0403493
0.0221785
0.0791808
0.108235
0.12377
0.130038
0.131347
0.129511
0.125943
0.121385
0.116367
0.111194
0.106063
0.101097
0.0964299
0.0921629
0.0881565
0.0839355
0.0795091
0.0771845
-0.0880945
-0.0197281
0.0432366
0.0775989
0.0973381
0.107029
0.111131
0.111607
0.109968
0.107034
0.103395
0.0994024
0.0952918
0.0912097
0.0872948
0.0836696
0.080296
0.0768851
0.0733508
0.0701337
-0.13421
-0.0609481
0.00760041
0.0470777
0.0709033
0.0839426
0.0907867
0.0935419
0.0938087
0.0924855
0.0902169
0.0874003
0.0843089
0.081115
0.0779624
0.0749752
0.0721936
0.0695553
0.0670704
0.0644451
-0.178486
-0.101287
-0.0275095
0.0168336
0.0445978
0.0608877
0.0704051
0.0753911
0.0775308
0.0777951
0.0768809
0.0752291
0.0731489
0.0708412
0.0684584
0.0661192
0.063909
0.0619432
0.0603753
0.0585897
-0.220661
-0.140659
-0.0618612
-0.0129714
0.0185544
0.0379728
0.0500754
0.0572295
0.0611967
0.0630159
0.0634324
0.0629281
0.0618456
0.060415
0.0588025
0.0571217
0.055475
0.0540831
0.0532005
0.0520452
-0.259949
-0.179157
-0.0952241
-0.0421935
-0.00709955
0.0153023
0.0298839
0.0391293
0.0448675
0.0481997
0.049916
0.0505358
0.0504324
0.0498635
0.0490122
0.0479916
0.0469062
0.0460275
0.0456741
0.0450247
-0.296668
-0.215789
-0.127397
-0.0707055
-0.032243
-0.00702612
0.00991216
0.0211596
0.0286021
0.0333969
0.0363748
0.0380897
0.038942
0.0392144
0.0391084
0.0387414
0.0382168
0.0378281
0.0379364
0.0377553
-0.330773
-0.250047
-0.158345
-0.0983753
-0.0567596
-0.0289223
-0.00976311
0.00338581
0.0124562
0.0186553
0.0228502
0.0256255
0.027406
0.028496
0.029115
0.0293897
0.0294235
0.0295163
0.0300561
0.0303196
-0.362021
-0.281476
-0.188326
-0.125049
-0.0805445
-0.0503038
-0.0290702
-0.0141308
-0.0035177
0.00402019
0.0093814
0.0131775
0.0158544
0.0177356
0.0190573
0.0199577
0.0205419
0.0211054
0.0220516
0.0227357
-0.390253
-0.310723
-0.216639
-0.150538
-0.103509
-0.0710951
-0.0479424
-0.0313338
-0.0192711
-0.0104663
-0.00399494
0.000777764
0.00431605
0.0069594
0.00895919
0.0104661
0.0115868
0.0126045
0.0139314
0.0150153
-0.415387
-0.337761
-0.243176
-0.174678
-0.125573
-0.0912254
-0.0663186
-0.0481714
-0.0347592
-0.0247651
-0.0172446
-0.0115434
-0.00718235
-0.00380847
-0.00115723
0.000934497
0.00257435
0.00402803
0.00571164
0.00717664
-0.437395
-0.362336
-0.267796
-0.197578
-0.146675
-0.110627
-0.084144
-0.0645974
-0.0499414
-0.0388407
-0.0303361
-0.0237581
-0.0186158
-0.0145453
-0.0112712
-0.00861831
-0.00647786
-0.00460557
-0.00258612
-0.000759262
-0.456301
-0.384284
-0.290493
-0.219207
-0.16677
-0.129236
-0.101371
-0.0805704
-0.064781
-0.0526612
-0.0432408
-0.0358408
-0.0299612
-0.0252301
-0.0213631
-0.0181739
-0.015552
-0.0132769
-0.0109398
-0.00877191
-0.472178
-0.403544
-0.311259
-0.239438
-0.185903
-0.146971
-0.117959
-0.0960538
-0.0792453
-0.0661987
-0.055933
-0.0477683
-0.0411975
-0.035843
-0.0314144
-0.0277147
-0.0246309
-0.0219678
-0.0193294
-0.0168422
-0.485142
-0.420096
-0.330066
-0.258197
-0.203907
-0.163928
-0.133873
-0.111016
-0.0933056
-0.0794288
-0.0683892
-0.0595204
-0.0523057
-0.046366
-0.0414082
-0.0372243
-0.0336986
-0.0306622
-0.027737
-0.0249518
-0.495343
-0.43393
-0.346889
-0.275462
-0.220738
-0.18002
-0.149141
-0.125449
-0.106937
-0.0923295
-0.0805885
-0.0710798
-0.0632687
-0.0567827
-0.0513293
-0.0466874
-0.0427399
-0.0393447
-0.0361462
-0.0330826
-0.502951
-0.445054
-0.361714
-0.291229
-0.236401
-0.195201
-0.16371
-0.139342
-0.12016
-0.104875
-0.0925151
-0.0824311
-0.0740718
-0.0670783
-0.0611647
-0.0560902
-0.0517405
-0.0480008
-0.0445417
-0.0412165
-0.50815
-0.453498
-0.374545
-0.305496
-0.250903
-0.209465
-0.177553
-0.152665
-0.132933
-0.117078
-0.104177
-0.0935581
-0.0847024
-0.0772419
-0.0709017
-0.0654203
-0.0606878
-0.0566165
-0.0529075
-0.0493361
-0.511123
-0.459322
-0.385402
-0.318264
-0.264247
-0.222816
-0.190668
-0.165407
-0.145239
-0.128922
-0.115552
-0.104463
-0.095161
-0.0872751
-0.0805214
-0.0746675
-0.069574
-0.0651782
-0.0612239
-0.0574274
-0.512047
-0.462621
-0.394326
-0.329543
-0.276439
-0.235264
-0.20306
-0.177569
-0.15708
-0.140394
-0.126629
-0.115137
-0.105436
-0.0971601
-0.0900292
-0.083827
-0.0784014
-0.0736731
-0.0694629
-0.0654823
-0.511104
-0.463535
-0.401366
-0.339345
-0.287488
-0.246819
-0.214741
-0.189157
-0.168459
-0.151493
-0.137408
-0.125573
-0.115519
-0.106892
-0.0994175
-0.0928876
-0.0871451
-0.0821037
-0.0776349
-0.0734715
-0.508511
-0.462312
-0.406617
-0.347699
-0.297415
-0.257498
-0.22572
-0.200182
-0.179383
-0.162225
-0.14789
-0.135771
-0.125411
-0.116468
-0.10868
-0.101841
-0.0957971
-0.0904612
-0.0857382
-0.0813735
-0.504249
-0.459129
-0.410138
-0.354638
-0.306255
-0.267331
-0.236024
-0.21066
-0.189864
-0.1726
-0.158085
-0.145736
-0.135115
-0.125892
-0.117815
-0.110687
-0.104355
-0.0987354
-0.0937572
-0.0891847
-0.498519
-0.454343
-0.412032
-0.360202
-0.314048
-0.276353
-0.245678
-0.220612
-0.19992
-0.182631
-0.168001
-0.155476
-0.144637
-0.135168
-0.126826
-0.119426
-0.112819
-0.10692
-0.101681
-0.0969003
-0.491506
-0.44836
-0.412389
-0.364434
-0.320827
-0.28459
-0.254703
-0.230056
-0.209566
-0.19233
-0.17765
-0.165001
-0.153985
-0.144301
-0.135718
-0.12806
-0.121189
-0.115014
-0.109506
-0.104512
-0.483381
-0.441584
-0.411298
-0.367397
-0.326636
-0.292071
-0.263127
-0.239016
-0.21882
-0.201714
-0.187045
-0.174322
-0.163169
-0.1533
-0.144497
-0.136596
-0.129467
-0.123018
-0.11723
-0.112014
-0.47434
-0.43439
-0.408869
-0.369181
-0.331529
-0.298831
-0.270978
-0.247519
-0.227708
-0.210802
-0.196204
-0.183455
-0.172202
-0.162177
-0.153174
-0.145041
-0.137659
-0.130937
-0.124857
-0.119403
-0.464613
-0.427079
-0.40526
-0.369901
-0.335559
-0.304906
-0.27829
-0.255596
-0.236254
-0.219619
-0.205148
-0.192418
-0.181101
-0.170946
-0.161761
-0.153406
-0.145774
-0.138777
-0.13239
-0.126679
-0.454458
-0.41986
-0.40069
-0.36969
-0.338782
-0.310328
-0.285094
-0.263278
-0.24449
-0.228191
-0.2139
-0.201232
-0.189885
-0.179626
-0.170276
-0.161706
-0.153822
-0.146546
-0.139836
-0.133848
-0.444151
-0.412846
-0.395454
-0.368693
-0.341252
-0.315131
-0.291423
-0.270594
-0.252443
-0.236545
-0.222486
-0.209923
-0.198579
-0.188238
-0.178737
-0.169958
-0.16182
-0.154259
-0.147208
-0.140916
-0.433962
-0.40608
-0.389896
-0.367053
-0.343024
-0.319345
-0.297302
-0.277575
-0.260145
-0.24471
-0.230935
-0.218517
-0.207207
-0.196807
-0.18717
-0.178186
-0.169787
-0.161932
-0.154518
-0.147894
-0.424131
-0.39957
-0.384356
-0.364911
-0.344158
-0.323001
-0.302754
-0.284244
-0.267621
-0.252717
-0.239276
-0.227044
-0.215798
-0.205362
-0.1956
-0.186416
-0.177747
-0.169585
-0.161785
-0.154795
-0.414838
-0.393324
-0.379099
-0.362409
-0.344723
-0.326127
-0.307794
-0.290619
-0.274898
-0.260594
-0.247541
-0.235535
-0.224386
-0.213933
-0.204059
-0.194678
-0.185729
-0.177243
-0.169032
-0.161638
-0.406195
-0.387373
-0.37427
-0.3597
-0.344801
-0.328752
-0.312431
-0.296711
-0.281994
-0.268369
-0.255761
-0.244025
-0.233004
-0.222558
-0.212582
-0.203007
-0.193767
-0.184938
-0.398253
-0.38177
-0.369892
-0.35695
-0.344485
-0.330903
-0.316666
-0.30252
-0.288921
-0.276063
-0.263966
-0.252549
-0.24169
-0.231275
-0.22121
-0.211445
-0.2019
-0.39102
-0.376577
-0.365918
-0.354317
-0.343881
-0.332616
-0.320496
-0.308037
-0.295678
-0.283692
-0.272184
-0.26114
-0.250484
-0.240127
-0.229988
-0.220037
-0.384477
-0.371838
-0.362293
-0.351909
-0.343103
-0.333938
-0.323916
-0.313239
-0.302253
-0.291258
-0.280434
-0.269834
-0.259428
-0.249162
-0.238964
-0.378594
-0.367573
-0.358992
-0.349768
-0.342268
-0.334934
-0.326927
-0.318096
-0.308614
-0.298751
-0.288727
-0.278657
-0.268561
-0.258427
-0.373331
-0.36377
-0.356022
-0.347887
-0.341478
-0.335684
-0.329544
-0.322573
-0.314714
-0.306137
-0.297055
-0.287627
-0.277921
-0.368646
-0.360401
-0.353397
-0.346253
-0.3408
-0.336278
-0.331797
-0.326639
-0.32049
-0.313358
-0.305387
-0.296746
-0.287537
-0.364482
-0.357426
-0.351124
-0.344869
-0.340271
-0.336803
-0.33374
-0.330275
-0.325872
-0.320329
-0.313658
-0.305987
-0.360774
-0.354802
-0.349192
-0.343753
-0.339922
-0.337336
-0.33545
-0.333495
-0.330798
-0.326949
-0.321769
-0.315285
-0.357478
-0.352475
-0.347546
-0.342882
-0.339742
-0.337907
-0.336982
-0.336319
-0.335214
-0.333098
-0.329578
-0.354517
-0.350399
-0.34615
-0.342243
-0.339748
-0.338561
-0.338413
-0.338809
-0.33911
-0.338673
-0.336922
-0.351819
-0.348522
-0.344952
-0.341801
-0.33993
-0.339322
-0.339808
-0.341045
-0.342521
-0.343613
-0.349319
-0.346792
-0.343895
-0.341502
-0.340253
-0.340189
-0.341213
-0.343113
-0.345525
-0.347917
-0.346956
-0.345162
-0.342925
-0.341284
-0.340661
-0.341132
-0.342643
-0.345082
-0.348222
-0.344677
-0.343592
-0.341988
-0.341086
-0.34109
-0.342099
-0.344079
-0.346988
-0.350706
-0.34244
-0.342052
-0.34104
-0.340849
-0.341471
-0.343021
-0.345473
-0.348826
-0.353033
-0.340217
-0.340513
-0.340052
-0.340528
-0.341741
-0.343827
-0.346754
-0.350549
-0.355206
-0.337993
-0.338964
-0.339004
-0.340085
-0.341849
-0.344449
-0.347846
-0.352084
-0.33577
-0.337408
-0.337883
-0.339502
-0.34176
-0.344835
-0.348681
-0.353349
-0.333566
-0.335856
-0.336697
-0.338778
-0.341463
-0.344956
-0.349209
-0.354276
-0.331412
-0.334327
-0.335466
-0.33793
-0.340967
-0.344812
-0.349411
-0.354823
-0.329349
-0.332853
-0.334225
-0.336994
-0.340307
-0.34443
-0.349303
-0.354987
-0.327431
-0.331472
-0.333019
-0.336021
-0.339537
-0.343863
-0.348935
-0.35481
-0.325714
-0.330226
-0.331898
-0.335069
-0.338724
-0.343189
-0.348388
-0.324254
-0.329161
-0.330917
-0.334204
-0.337948
-0.342495
-0.347764
-0.323105
-0.328319
-0.330127
-0.333489
-0.337284
-0.341873
-0.34717
-0.322312
-0.327735
-0.329574
-0.332979
-0.336799
-0.341407
-0.346708
-0.321906
-0.327436
-0.329289
-0.332713
-0.336543
-0.341157
-0.346456
-0.079118
-0.0867433
-0.0942865
-0.101734
-0.109079
-0.116313
-0.123436
-0.130445
-0.137348
-0.144143
-0.150851
-0.0784864
-0.0860031
-0.0934367
-0.100773
-0.108003
-0.115118
-0.122116
-0.128992
-0.135753
-0.142393
-0.148933
-0.077846
-0.0852243
-0.0925157
-0.0997054
-0.106784
-0.113741
-0.120574
-0.127274
-0.133849
-0.140287
-0.146612
-0.0771945
-0.0844446
-0.0916066
-0.0986645
-0.105609
-0.112428
-0.119119
-0.125671
-0.132092
-0.138367
-0.144522
-0.0765327
-0.0836585
-0.0906963
-0.0976293
-0.104448
-0.111139
-0.1177
-0.12412
-0.130405
-0.136539
-0.142549
-0.0758621
-0.0828614
-0.0897728
-0.0965786
-0.103269
-0.10983
-0.116259
-0.122543
-0.128689
-0.134678
-0.140539
-0.0751832
-0.0820534
-0.0888354
-0.0955107
-0.102069
-0.108495
-0.114787
-0.120928
-0.126929
-0.132764
-0.138465
-0.074497
-0.0812362
-0.0878869
-0.0944295
-0.100853
-0.107142
-0.113293
-0.119289
-0.12514
-0.130818
-0.136354
-0.0738045
-0.0804114
-0.0869293
-0.0933378
-0.099625
-0.105775
-0.111784
-0.117634
-0.123332
-0.128852
-0.134222
-0.0731071
-0.0795806
-0.0859646
-0.0922377
-0.0983875
-0.104397
-0.110262
-0.115964
-0.121509
-0.126871
-0.132073
-0.0724063
-0.0787455
-0.0849945
-0.0911314
-0.0971425
-0.103011
-0.108731
-0.114284
-0.119675
-0.124878
-0.129912
-0.0717035
-0.077908
-0.0840214
-0.0900212
-0.0958929
-0.101619
-0.107193
-0.112597
-0.117832
-0.122877
-0.127742
-0.0710006
-0.0770703
-0.0830477
-0.0889101
-0.0946419
-0.100225
-0.105653
-0.110907
-0.115987
-0.120872
-0.12557
-0.0702993
-0.0762345
-0.0820762
-0.0878012
-0.0933929
-0.0988335
-0.104115
-0.10922
-0.114144
-0.118872
-0.123403
-0.0696018
-0.0754033
-0.0811097
-0.0866977
-0.0921497
-0.0974483
-0.102584
-0.10754
-0.11231
-0.116881
-0.121248
-0.0689101
-0.0745794
-0.0801516
-0.0856035
-0.0909168
-0.0960742
-0.101065
-0.105873
-0.110492
-0.114907
-0.119114
-0.123102
-0.0682267
-0.0737659
-0.0792056
-0.0845228
-0.0896986
-0.0947165
-0.0995643
-0.104227
-0.108696
-0.112959
-0.117009
-0.120836
-0.0675528
-0.0729659
-0.0782756
-0.0834599
-0.0885005
-0.093381
-0.0980883
-0.102609
-0.106931
-0.111044
-0.114942
-0.118614
-0.0668911
-0.0721831
-0.0773661
-0.0824201
-0.0873281
-0.0920741
-0.0966443
-0.101025
-0.105205
-0.109174
-0.112925
-0.116448
-0.066251
-0.0714233
-0.0764821
-0.081409
-0.0861878
-0.090803
-0.09524
-0.0994857
-0.103529
-0.107359
-0.110968
-0.114349
-0.0656377
-0.0706912
-0.0756291
-0.0804329
-0.0850868
-0.0895754
-0.0938842
-0.098
-0.101912
-0.105609
-0.109084
-0.11233
-0.0650537
-0.0699916
-0.074813
-0.0794987
-0.0840328
-0.0884001
-0.0925864
-0.0965785
-0.100366
-0.103937
-0.107287
-0.110407
-0.0645036
-0.0693311
-0.0740412
-0.0786143
-0.0830344
-0.0872866
-0.0913571
-0.0952328
-0.0989029
-0.102358
-0.10559
-0.108593
-0.0639933
-0.0687166
-0.0733214
-0.0777883
-0.0821013
-0.0862457
-0.090208
-0.0939755
-0.0975375
-0.100884
-0.10401
-0.106907
-0.0635297
-0.0681557
-0.0726624
-0.0770305
-0.0812442
-0.0852892
-0.0891522
-0.0928208
-0.0962846
-0.0995344
-0.102564
-0.105367
-0.0631203
-0.0676573
-0.0720742
-0.0763521
-0.0804755
-0.0844305
-0.088204
-0.0917842
-0.0951608
-0.0983251
-0.101271
-0.103992
-0.0627741
-0.0672314
-0.071568
-0.0757656
-0.079809
-0.0836846
-0.08738
-0.0908836
-0.0941854
-0.0972769
-0.100152
-0.102805
-0.0625016
-0.0668889
-0.0711557
-0.0752841
-0.0792593
-0.0830681
-0.0866983
-0.0901388
-0.0933798
-0.096413
-0.0992322
-0.101832
-0.0623111
-0.0666403
-0.0708486
-0.0749193