/*--------------------------------*- C++ -*----------------------------------*\
  =========                 |
  \\      /  F ield         | OpenFOAM: The Open Source CFD Toolbox
   \\    /   O peration     | Website:  https://openfoam.org
    \\  /    A nd           | Version:  7
     \\/     M anipulation  |
\*---------------------------------------------------------------------------*/
FoamFile
{
    version     2.0;
    format      ascii;
    class       volVectorField;
    location    "10";
    object      U;
}
// * * * * * * * * * * * * * * * * * * * * * * * * * * * * * * * * * * * * * //

dimensions      [0 1 -1 0 0 0 0];

internalField   nonuniform List<vector> 
6050
(
(-0.00910312 0.00344502 -4.01118e-20)
(-0.0380835 0.00591988 -4.87974e-20)
(-0.0778948 0.0067947 6.12965e-21)
(-0.114929 0.00708426 -1.59245e-20)
(-0.150944 0.00721518 7.83351e-20)
(-0.185132 0.00736434 2.5041e-20)
(-0.218268 0.00756457 -3.54001e-20)
(-0.00938391 0.0102348 2.03477e-21)
(-0.0380712 0.0176198 -3.08015e-20)
(-0.0770836 0.0202367 -6.50222e-20)
(-0.113101 0.021094 5.30528e-20)
(-0.147833 0.0214661 3.42599e-20)
(-0.180437 0.0218825 5.35429e-21)
(-0.21162 0.0224433 1.02442e-19)
(-0.00993421 0.0167317 -1.14257e-20)
(-0.0380573 0.0289082 -4.41403e-20)
(-0.0755074 0.0332417 6.37109e-20)
(-0.109533 0.0346336 4.97258e-20)
(-0.141755 0.0351872 -1.69658e-19)
(-0.171274 0.0357815 2.24018e-20)
(-0.198675 0.0365885 -1.7209e-19)
(-0.0107328 0.0227604 5.74934e-20)
(-0.0380624 0.0395287 2.33679e-19)
(-0.0732548 0.045532 -7.69345e-20)
(-0.10439 0.047404 -1.58787e-19)
(-0.132982 0.0480448 -9.28582e-20)
(-0.15807 0.0486775 1.30607e-19)
(-0.180088 0.0495537 1.65451e-19)
(-0.0117506 0.0281713 -1.56617e-19)
(-0.0381147 0.0492492 -4.56251e-20)
(-0.0704493 0.0568482 1.37927e-19)
(-0.0979051 0.0591245 7.26454e-20)
(-0.121893 0.0597306 3.60384e-19)
(-0.141411 0.0602246 -3.38224e-19)
(-0.156739 0.0609481 -1.92617e-19)
(-0.0129534 0.032848 1.01921e-19)
(-0.0382476 0.0578704 8.44084e-21)
(-0.0672389 0.0669563 -2.571e-19)
(-0.0903542 0.0695401 -1.28441e-19)
(-0.108933 0.0699697 -4.25369e-19)
(-0.121976 0.0701245 -1.51993e-20)
(-0.129634 0.0704483 -2.22482e-20)
(-0.131657 0.0708188 -3.84443e-20)
(-0.0143052 0.0367129 -2.6109e-19)
(-0.0384957 0.0652322 -4.69333e-19)
(-0.0637828 0.075654 1.70923e-19)
(-0.0820356 0.0784267 -4.80533e-20)
(-0.0945765 0.0785258 3.82951e-19)
(-0.100472 0.0781329 3.72819e-19)
(-0.0997875 0.0778059 -1.29595e-19)
(-0.0922407 0.0774445 1.82042e-19)
(-0.0157716 0.0397296 1.93414e-19)
(-0.0388908 0.0712192 2.16094e-19)
(-0.0602365 0.082776 1.5124e-19)
(-0.0732395 0.0855962 5.43752e-19)
(-0.0792771 0.0852059 -1.21754e-19)
(-0.0775517 0.0840637 1.86618e-19)
(-0.0681 0.0828513 2.45924e-19)
(-0.0506549 0.0815108 -3.12739e-19)
(-0.0173229 0.0419023 -9.51272e-20)
(-0.0394574 0.0757632 5.67413e-20)
(-0.0567344 0.0881996 -4.59598e-19)
(-0.0642167 0.0909018 -2.65843e-19)
(-0.0634128 0.0898647 -2.14415e-19)
(-0.0537301 0.0877928 -1.20823e-19)
(-0.0352224 0.0854993 -5.99868e-19)
(-0.00766756 0.0829884 1.09634e-19)
(-0.0189365 0.0432724 3.63076e-19)
(-0.0402066 0.0788438 4.21357e-19)
(-0.0533715 0.0918484 1.11698e-19)
(-0.0551422 0.0942433 4.62039e-19)
(-0.0472276 0.0924107 1.30053e-19)
(-0.0292871 0.0892652 2.93075e-19)
(-0.0014117 0.0857578 3.3347e-19)
(0.0365873 0.0819758 3.11479e-19)
(-0.0205982 0.0439128 -2.27523e-19)
(-0.0411308 0.0804856 -3.82669e-19)
(-0.0501837 0.0936966 6.71519e-19)
(-0.0460772 0.0955735 -6.94025e-19)
(-0.0307643 0.0928139 -4.9989e-19)
(-0.00416421 0.0885057 -2.17323e-19)
(0.0336218 0.0837452 -9.57107e-20)
(0.0828083 0.0787273 -5.31898e-19)
(-0.0223022 0.0439196 2.13018e-19)
(-0.0421954 0.0807534 1.69539e-19)
(-0.0471274 0.093771 -7.7973e-19)
(-0.036928 0.094905 -2.63994e-19)
(-0.0137953 0.0911172 2.82741e-19)
(0.0221407 0.0856364 -1.5105e-19)
(0.0708491 0.0797166 4.12005e-19)
(0.132654 0.0736914 3.98011e-19)
(0.207825 0.0674705 -5.27193e-19)
(-0.0240493 0.043402 -6.8245e-19)
(-0.0433346 0.0797502 -6.66998e-19)
(-0.0440568 0.0921477 4.98944e-19)
(-0.0274057 0.0923167 3.18741e-19)
(0.00424437 0.0874509 1.71087e-19)
(0.0506615 0.0809001 -1.40976e-19)
(0.111994 0.0740994 -2.55833e-19)
(0.188692 0.067555 1.30849e-19)
(0.280895 0.0613108 1.82115e-20)
(-0.0258406 0.0424714 1.05697e-19)
(-0.0444452 0.0776101 7.00273e-19)
(-0.0407071 0.0889489 -2.20721e-19)
(-0.0169889 0.0879593 -2.85387e-20)
(0.0243076 0.0820481 -2.2264e-19)
(0.0830004 0.0746886 -8.45487e-20)
(0.159465 0.0675324 7.66605e-20)
(0.254051 0.0612699 2.52458e-19)
(0.366105 0.0560366 7.22889e-20)
(-0.0276739 0.0412357 5.95633e-19)
(-0.0453723 0.0744766 -1.73574e-19)
(-0.0366834 0.0843451 -4.46722e-19)
(-0.00490109 0.0820609 5.97816e-19)
(0.047752 0.0752608 5.31872e-19)
(0.121272 0.0675712 3.86311e-19)
(0.216076 0.0608864 3.58354e-19)
(0.331685 0.0560286 -1.25609e-19)
(0.465354 0.0530537 2.32859e-19)
(-0.0295396 0.039787 -1.87826e-19)
(-0.0459039 0.0704948 1.04289e-19)
(-0.0314504 0.0785485 2.59081e-19)
(0.00989116 0.0749278 -7.25294e-19)
(0.0762996 0.0675732 -1.2405e-19)
(0.167905 0.0603104 -6.23598e-19)
(0.284495 0.0552486 2.56169e-19)
(0.42331 0.0531386 -6.19176e-19)
(0.577744 0.0535903 2.43236e-19)
(0.737819 0.0552023 -5.86882e-19)
(-0.03141 0.0381928 5.92113e-21)
(-0.0457699 0.0658098 4.62924e-19)
(-0.0243328 0.0718004 -1.22585e-19)
(0.0286541 0.0669427 -4.20791e-20)
(0.111921 0.0596097 1.39936e-19)
(0.225285 0.0538565 4.85702e-19)
(0.366452 0.0518287 -2.40427e-19)
(0.528287 0.0537582 -2.17943e-19)
(0.698813 0.0582975 1.4546e-19)
(0.863916 0.0630848 3.29796e-19)
(-0.0332359 0.0364958 -5.00985e-20)
(-0.044639 0.0605542 -4.52337e-20)
(-0.0145293 0.0643617 5.22477e-19)
(0.0528305 0.058563 2.71302e-19)
(0.156633 0.0521346 -2.4745e-19)
(0.295213 0.0492933 7.14724e-20)
(0.461859 0.0517523 7.98944e-20)
(0.642949 0.0585418 7.13365e-19)
(0.82109 0.066948 -6.07481e-19)
(0.980394 0.0737952 -8.69049e-19)
(1.11031 0.0767912 -8.65318e-19)
(-0.034945 0.0347152 4.27661e-20)
(-0.0421189 0.0548389 -5.84835e-19)
(-0.00113582 0.0565066 1.54344e-19)
(0.0839477 0.0503202 -5.23e-19)
(0.212197 0.0460373 6.68689e-19)
(0.378267 0.0477072 -4.54706e-19)
(0.568167 0.0557603 1.88141e-20)
(0.760935 0.067356 -3.82444e-20)
(0.936074 0.0784696 -4.78376e-19)
(1.07978 0.0857382 1.1889e-18)
(1.18678 0.0874947 5.0705e-19)
(-0.0364381 0.0328436 -3.08098e-19)
(-0.037764 0.0487504 4.03521e-19)
(0.0168206 0.0485235 -3.55893e-19)
(0.123487 0.0428317 -3.92505e-19)
(0.279722 0.0422893 -7.32233e-19)
(0.473203 0.0499654 2.90531e-19)
(0.680396 0.0639323 -2.02722e-19)
(0.874691 0.0792815 -5.93142e-19)
(1.03676 0.091368 5.19416e-19)
(1.15846 0.0974935 -4.2403e-19)
(1.24107 0.0971183 6.10694e-19)
(1.29137 0.091045 7.05221e-19)
(-0.0375807 0.030845 1.60366e-18)
(-0.0310865 0.0423606 -4.10167e-19)
(0.0403367 0.040732 3.63158e-19)
(0.172702 0.0368223 4.46273e-19)
(0.3592 0.0418316 6.90569e-19)
(0.576698 0.0564499 -3.68039e-19)
(0.792099 0.0756103 2.18503e-19)
(0.977535 0.0929553 -2.96755e-19)
(1.1193 0.104281 -5.51288e-19)
(1.2167 0.108201 2.85926e-19)
(1.2768 0.105396 -5.18662e-19)
(1.30938 0.0974572 -3.30044e-19)
(-0.0382197 0.0286829 -1.12621e-18)
(-0.021562 0.0357427 4.9088e-19)
(0.0704058 0.0334946 -5.19084e-20)
(0.232394 0.033092 -2.55388e-19)
(0.449113 0.0453336 -7.68746e-19)
(0.683718 0.0668569 5.50014e-19)
(0.896922 0.0896054 -5.03041e-19)
(1.06516 0.107042 2.24312e-19)
(1.18311 0.116319 2.79035e-19)
(1.25716 0.117562 -1.19161e-18)
(1.29832 0.112446 2.30123e-19)
(1.31754 0.102998 4.11201e-20)
(1.32345 0.0910468 5.05803e-19)
(-0.0381872 0.0263178 -8.2116e-20)
(-0.00863448 0.0289594 -7.38493e-19)
(0.107968 0.0272361 4.0944e-19)
(0.302655 0.0324354 2.72699e-19)
(0.546426 0.052975 -2.23138e-19)
(0.788727 0.0803119 -6.96534e-19)
(0.990239 0.104656 4.7286e-19)
(1.13615 0.120607 -1.22929e-19)
(1.22997 0.127113 9.0449e-20)
(1.2835 0.125646 7.4511e-19)
(1.30973 0.118535 -4.0041e-19)
(1.31935 0.107949 -3.70629e-19)
(1.31973 0.0955411 -3.41502e-19)
(-0.0372894 0.0237055 -3.4769e-20)
(0.00827752 0.0220991 4.32273e-19)
(0.153795 0.0225174 -7.66561e-19)
(0.38253 0.0355118 1.53508e-19)
(0.646912 0.0643865 5.3402e-19)
(0.886805 0.0957029 1.01686e-19)
(1.06956 0.119763 1.62492e-19)
(1.19116 0.133162 2.96756e-19)
(1.26267 0.136635 -3.36209e-19)
(1.29923 0.132675 -2.51817e-19)
(1.31422 0.123945 4.70101e-19)
(1.31721 0.112546 8.73899e-19)
(1.31408 0.09989 9.69462e-20)
(1.308 0.0867829 -3.43512e-19)
(-0.0353139 0.0208114 8.43826e-20)
(0.0297801 0.0153095 8.11359e-19)
(0.208338 0.0200401 -2.49398e-19)
(0.469901 0.0426199 6.88738e-19)
(0.746017 0.0787632 -5.67421e-19)
(0.974531 0.11199 6.75336e-19)
(1.13438 0.13429 -5.53971e-19)
(1.23206 0.14455 3.61645e-19)
(1.28416 0.145037 -2.36555e-19)
(1.30733 0.138913 2.54335e-20)
(1.31417 0.128919 -2.82349e-19)
(1.31273 0.116958 -4.93553e-19)
(1.30742 0.104184 -2.42875e-19)
(1.30038 0.091226 1.68943e-19)
(1.2925 0.0785266 5.68139e-20)
(-0.0320332 0.0176193 -7.63743e-19)
(0.0564917 0.0088438 -7.31859e-19)
(0.271521 0.0205647 5.7267e-19)
(0.561685 0.0535752 -3.46533e-20)
(0.83977 0.0951464 8.08916e-19)
(1.05018 0.128395 -4.91348e-19)
(1.18554 0.147919 2.15254e-19)
(1.26119 0.154814 -2.80686e-19)
(1.29717 0.152538 5.30705e-19)
(1.31012 0.144606 -2.1158e-19)
(1.31124 0.133647 2.08603e-19)
(1.3069 0.121298 -1.3987e-20)
(1.30027 0.108473 1.65327e-19)
(1.29269 0.0956552 -2.20905e-20)
(1.28466 0.0831456 2.50429e-19)
(1.27636 0.0710251 5.21853e-20)
(-0.0272008 0.0141355 1.09683e-18)
(0.0890004 0.0031144 -7.09166e-19)
(0.342554 0.0247287 1.82094e-19)
(0.654355 0.0677929 -7.20985e-19)
(0.925333 0.112675 -5.09315e-19)
(1.1134 0.144428 5.57972e-20)
(1.22459 0.160558 1.00934e-19)
(1.2809 0.164106 -2.84049e-19)
(1.30393 0.15937 5.20677e-20)
(1.30933 0.149958 4.07512e-19)
(1.30651 0.138261 -3.01318e-19)
(1.30032 0.125635 -1.80282e-19)
(1.29288 0.112784 -9.90702e-20)
(1.28501 0.100069 -8.94371e-20)
(1.27693 0.0877194 -1.1407e-19)
(1.26873 0.075805 2.14348e-19)
(1.26037 0.0647591 -1.03942e-19)
(-0.0205444 0.010396 -2.60757e-19)
(0.127779 -0.00127036 6.58468e-19)
(0.419866 0.0328431 3.95546e-19)
(0.74457 0.0845128 -4.50944e-19)
(1.0011 0.130699 5.60351e-19)
(1.16478 0.159826 -3.37011e-21)
(1.25337 0.172244 5.08843e-19)
(1.29329 0.172611 3.33875e-19)
(1.30622 0.16574 2.97354e-19)
(1.30616 0.155126 -2.87329e-19)
(1.30069 0.142852 2.01406e-19)
(1.29332 0.130006 2.13606e-19)
(1.28539 0.11712 3.57395e-19)
(1.27736 0.104469 -1.88712e-19)
(1.2693 0.0922176 -3.93292e-22)
(1.26122 0.0804752 -1.79534e-19)
(1.25309 0.0694534 7.411e-21)
(1.24503 0.0586993 -7.76193e-20)
(-0.0117584 0.00647737 -2.37593e-19)
(0.173059 -0.00352947 -2.65982e-19)
(0.50126 0.0448019 -1.38043e-20)
(0.829652 0.10301 4.2747e-19)
(1.06647 0.148782 -4.19056e-19)
(1.20544 0.174484 -4.59132e-19)
(1.2737 0.183089 1.76104e-19)
(1.30011 0.180523 -2.0876e-19)
(1.30535 0.171821 -1.33491e-19)
(1.30143 0.160219 5.25987e-20)
(1.2942 0.147471 -4.55835e-19)
(1.28607 0.134425 4.20639e-19)
(1.27786 0.12148 -4.08637e-20)
(1.26974 0.108844 -9.32772e-20)
(1.26173 0.0966504 8.38206e-20)
(1.25379 0.0849854 -1.26738e-19)
(1.2459 0.0740125 -1.12121e-19)
(1.23811 0.0634201 -6.10681e-21)
(1.23019 0.0547157 -8.16518e-20)
(1.22336 0.0435408 1.52979e-19)
(-0.000506682 0.00251425 2.73451e-19)
(0.2247 -0.00282192 4.82863e-19)
(0.584223 0.0601706 -6.55652e-19)
(0.907766 0.122701 -2.44845e-19)
(1.1216 0.166653 -1.11521e-19)
(1.23672 0.188395 6.4301e-19)
(1.28722 0.193235 -1.72358e-19)
(1.30277 0.188016 -1.07717e-19)
(1.30228 0.177746 -1.50371e-19)
(1.29567 0.165313 1.81316e-19)
(1.28728 0.152145 6.74644e-20)
(1.27868 0.138893 -7.90059e-20)
(1.27028 0.125854 -2.11711e-19)
(1.26214 0.113187 2.17253e-20)
(1.2542 0.100997 -9.10498e-20)
(1.24641 0.0893695 1.62929e-19)
(1.23874 0.078379 3.98106e-20)
(1.23123 0.0679167 4.12879e-20)
(1.22371 0.0589646 5.54113e-20)
(1.21707 0.0480889 -1.61498e-19)
(0.0135583 -0.00128095 -5.1422e-19)
(0.282111 0.00157304 -3.0329e-20)
(0.666285 0.0783709 -1.00095e-19)
(0.977867 0.14316 2.89377e-19)
(1.16708 0.184157 -1.00586e-19)
(1.25997 0.201611 -2.82563e-19)
(1.29536 0.20283 -3.98829e-19)
(1.30235 0.195234 2.81187e-19)
(1.29767 0.18361 -3.3134e-19)
(1.28921 0.170448 1.6514e-19)
(1.28006 0.156882 9.75322e-20)
(1.27116 0.143403 -5.12167e-20)
(1.26267 0.130231 1.21066e-19)
(1.25454 0.117487 1.35825e-19)
(1.24669 0.10526 -2.88839e-19)
(1.23905 0.093608 2.15781e-19)
(1.23162 0.0825906 1.84053e-20)
(1.22437 0.0721723 3.66981e-20)
(1.2172 0.0629657 1.76572e-19)
(1.21075 0.0523674 4.36938e-20)
(0.0307531 -0.00460134 1.5299e-19)
(0.344256 0.010088 -6.26401e-19)
(0.745303 0.098836 5.93229e-19)
(1.03953 0.164086 2.71785e-19)
(1.20375 0.201218 -2.037e-19)
(1.27651 0.214214 -3.37623e-19)
(1.29929 0.212014 1.16745e-20)
(1.29967 0.202294 -6.705e-20)
(1.29197 0.189476 5.69996e-19)
(1.28226 0.175646 -2.60912e-19)
(1.27261 0.16168 -3.01382e-20)
(1.26352 0.147942 6.92146e-20)
(1.25498 0.134595 -4.30876e-20)
(1.2469 0.121734 -8.84013e-20)
(1.23916 0.109424 2.48459e-19)
(1.2317 0.097713 -2.04024e-19)
(1.22448 0.0866318 2.44551e-20)
(1.2175 0.0762082 -1.14438e-19)
(1.21066 0.0667558 -1.19907e-19)
(1.20441 0.0563604 -3.84159e-20)
(0.0513094 -0.00704553 -1.09773e-19)
(0.409767 0.0227974 2.61975e-19)
(0.819603 0.121078 -2.3996e-19)
(1.09277 0.185263 -2.50182e-19)
(1.23256 0.217813 4.17356e-19)
(1.28747 0.2263 4.45255e-19)
(1.29994 0.220908 2.16403e-19)
(1.2953 0.20928 -3.64629e-21)
(1.28547 0.195381 -5.60097e-19)
(1.27491 0.180909 4.74666e-20)
(1.26495 0.166525 1.79989e-20)
(1.25575 0.152494 1.21694e-19)
(1.24722 0.138933 1.99557e-19)
(1.2392 0.125915 -1.071e-20)
(1.23159 0.113488 -4.55964e-20)
(1.22431 0.101677 1.82913e-19)
(1.21733 0.0905128 -1.19457e-19)
(1.21059 0.0800309 1.45763e-19)
(1.20406 0.070333 -1.2983e-20)
(1.19802 0.0601066 1.47884e-19)
(0.0753241 -0.00814337 1.91694e-19)
(0.477098 0.0394706 1.02429e-19)
(0.88802 0.144696 -2.35322e-19)
(1.13786 0.206528 -2.93307e-19)
(1.25445 0.233948 -2.09092e-20)
(1.29385 0.237962 -4.88387e-20)
(1.29804 0.229606 2.41934e-19)
(1.28967 0.216248 1.69418e-19)
(1.27834 0.20134 1.83046e-19)
(1.26724 0.186229 -6.67227e-20)
(1.25709 0.171399 8.82612e-20)
(1.24785 0.157039 -8.13453e-20)
(1.23935 0.143229 -1.65547e-19)
(1.23144 0.130019 2.01974e-20)
(1.22397 0.11744 4.30099e-20)
(1.21689 0.105502 5.10166e-20)
(1.21013 0.0942292 6.78152e-20)
(1.20364 0.0836483 -4.06558e-20)
(1.1974 0.0737194 7.82428e-20)
(1.19158 0.0636168 -1.78333e-19)
(0.102726 -0.00740776 2.52704e-19)
(0.544678 0.0596959 -2.32806e-20)
(0.949849 0.16936 3.30415e-19)
(1.17526 0.227745 2.03013e-19)
(1.27035 0.249645 9.15116e-20)
(1.29649 0.249287 -2.2564e-19)
(1.29414 0.238182 -2.1533e-19)
(1.28303 0.223228 -6.01738e-20)
(1.2707 0.207351 -1.63067e-20)
(1.25926 0.19159 -1.59457e-20)
(1.24901 0.176283 -2.12862e-19)
(1.23979 0.161559 4.6743e-20)
(1.23137 0.147465 8.45426e-20)
(1.22358 0.134033 2.61679e-21)
(1.21628 0.121274 1.01598e-20)
(1.2094 0.109184 -2.62266e-20)
(1.20287 0.0977823 -6.31048e-20)
(1.19664 0.0870686 -5.20844e-20)
(1.19068 0.076919 -1.08078e-19)
(1.18508 0.0669085 1.63245e-20)
(0.133266 -0.0044011 -1.55237e-19)
(0.611032 0.0829993 9.80721e-20)
(1.00475 0.194804 -4.09792e-20)
(1.20553 0.248804 9.64091e-21)
(1.28106 0.264935 -3.76276e-19)
(1.29607 0.260347 9.37575e-20)
(1.28864 0.246683 6.07247e-20)
(1.27559 0.230232 -4.2176e-20)
(1.2626 0.213402 1.51431e-19)
(1.25097 0.196967 -2.46917e-21)
(1.24071 0.181151 6.67461e-20)
(1.23155 0.166031 7.82047e-20)
(1.22324 0.151625 -5.36057e-20)
(1.21561 0.137944 -6.32506e-20)
(1.2085 0.12498 -3.43231e-20)
(1.20184 0.112718 -3.66475e-20)
(1.19555 0.101169 3.22466e-20)
(1.18956 0.0902968 3.69632e-20)
(1.18388 0.0799445 5.90637e-20)
(1.17849 0.0699947 6.77766e-20)
(0.16654 0.00120452 -7.22654e-20)
(0.674855 0.108913 -1.457e-20)
(1.05267 0.220806 -1.33073e-19)
(1.22926 0.26961 1.24363e-19)
(1.2873 0.279843 2.70117e-19)
(1.29311 0.271195 1.48483e-19)
(1.28184 0.255135 -6.72246e-20)
(1.26744 0.237253 -3.94611e-20)
(1.25407 0.219469 -8.97288e-20)
(1.24238 0.202335 8.66023e-20)
(1.23217 0.185979 -3.36162e-21)
(1.22312 0.170434 -4.31193e-20)
(1.21497 0.155691 -5.08076e-20)
(1.20752 0.141738 -4.86662e-20)
(1.20062 0.12855 1.00999e-19)
(1.19419 0.1161 -3.42377e-20)
(1.18814 0.104388 -3.69349e-20)
(1.18242 0.0933386 -6.33315e-21)
(1.177 0.0828004 -6.42339e-21)
(1.17183 0.0728853 -3.77448e-20)
(0.202012 0.00959266 -7.16093e-21)
(0.735056 0.136996 -9.7349e-20)
(1.09372 0.247177 4.5434e-20)
(1.24703 0.290083 -1.63316e-19)
(1.28971 0.294392 -1.14934e-19)
(1.28805 0.281867 1.72496e-20)
(1.27394 0.263543 -1.70541e-21)
(1.25867 0.244272 7.68089e-21)
(1.24512 0.225522 2.43936e-20)
(1.23346 0.207662 4.33007e-20)
(1.22338 0.190739 -5.90211e-20)
(1.21449 0.174745 2.51236e-20)
(1.20653 0.159642 4.39458e-20)
(1.1993 0.1454 -9.62309e-21)
(1.19264 0.131972 -4.26362e-20)
(1.18645 0.119322 2.38892e-20)
(1.18066 0.107434 2.72668e-20)
(1.17519 0.0961976 2.75775e-20)
(1.17003 0.0854934 -1.39302e-20)
(1.16507 0.0755901 4.98038e-21)
(0.23906 0.0208019 8.01046e-20)
(0.790772 0.166836 -1.13247e-19)
(1.12814 0.273746 -1.5589e-20)
(1.25943 0.310159 6.67845e-20)
(1.28881 0.308592 1.0854e-19)
(1.28121 0.292377 -3.34705e-20)
(1.26508 0.271895 -9.61033e-20)
(1.24931 0.251258 9.5733e-20)
(1.23574 0.231527 -2.59448e-20)
(1.22422 0.212915 -2.99887e-20)
(1.21432 0.1954 2.73685e-20)
(1.20565 0.178939 -1.36102e-20)
(1.19792 0.16346 -3.98782e-21)
(1.19093 0.148915 1.0638e-20)
(1.18453 0.135236 1.52903e-20)
(1.17861 0.122378 1.96099e-20)
(1.17308 0.110305 -3.48976e-20)
(1.16788 0.098877 -8.61266e-21)
(1.16299 0.0880253 -2.12405e-21)
(1.15823 0.0781137 1.03559e-20)
(0.276977 0.0347534 -4.39559e-20)
(0.841358 0.19804 7.86811e-20)
(1.15622 0.300348 -9.86554e-21)
(1.26701 0.329781 -2.14691e-20)
(1.28505 0.322444 -7.0639e-20)
(1.27284 0.302724 3.33239e-20)
(1.25535 0.280168 2.20136e-20)
(1.23938 0.258174 -2.446e-20)
(1.22594 0.237444 -4.01685e-21)
(1.21463 0.218059 1.17294e-20)
(1.20499 0.199935 -1.27375e-20)
(1.19658 0.18299 6.42712e-21)
(1.18913 0.167125 -1.39702e-20)
(1.18243 0.152267 8.01197e-21)
(1.17631 0.138331 1.65541e-21)
(1.17067 0.12526 -7.30082e-21)
(1.16542 0.112997 4.1894e-21)
(1.1605 0.101378 -6.49475e-21)
(1.15585 0.0903967 2.11565e-21)
(1.1513 0.0804615 7.50578e-21)
(0.314969 0.0512816 -3.15262e-20)
(0.886372 0.230234 6.88207e-20)
(1.17827 0.326815 -7.28375e-21)
(1.27025 0.348898 -2.75935e-20)
(1.27879 0.33594 -6.50284e-20)
(1.26312 0.312889 3.28403e-20)
(1.24483 0.288325 2.14586e-20)
(1.22889 0.264977 -1.93307e-20)
(1.2157 0.243233 -2.25628e-22)
(1.2047 0.223058 9.18096e-21)
(1.19537 0.204312 -8.12185e-21)
(1.18729 0.186874 -2.22004e-21)
(1.18016 0.170614 -4.8956e-21)
(1.17377 0.155438 2.92095e-21)
(1.16796 0.141243 1.89136e-21)
(1.16263 0.127957 -7.4452e-21)
(1.15767 0.115503 8.27996e-21)
(1.15303 0.1037 -7.95407e-21)
(1.14864 0.0926061 -1.92433e-21)
(1.14429 0.0826337 4.96053e-21)
(0.352262 0.0701351 9.1272e-20)
(0.92547 0.263019 -9.27863e-20)
(1.19456 0.352958 -6.72811e-20)
(1.26956 0.367455 8.81394e-20)
(1.2703 0.349064 1.01006e-19)
(1.25217 0.322849 -4.13633e-20)
(1.23353 0.296328 -6.88799e-20)
(1.21784 0.271627 7.57305e-20)
(1.20503 0.248856 -2.12168e-20)
(1.19441 0.227881 -2.48134e-20)
(1.18547 0.208505 1.94621e-20)
(1.17776 0.190569 -3.76148e-21)
(1.171 0.17391 -9.16775e-21)
(1.16496 0.158416 2.94537e-21)
(1.15949 0.143962 1.40755e-20)
(1.15448 0.130463 1.64301e-20)
(1.14983 0.117819 -2.05677e-20)
(1.1455 0.105842 -5.44915e-21)
(1.14137 0.0946555 -3.52082e-21)
(1.1372 0.0846353 7.49313e-21)
(0.388319 0.0910917 4.06375e-20)
(0.958741 0.296135 -1.47279e-19)
(1.20555 0.378658 4.1536e-20)
(1.26538 0.385409 -1.09287e-19)
(1.25986 0.361778 -1.28193e-19)
(1.2401 0.332545 2.08949e-20)
(1.2215 0.304112 8.25752e-21)
(1.20623 0.27806 -8.33881e-21)
(1.1939 0.254257 2.82218e-20)
(1.18376 0.23248 -1.14249e-21)
(1.17527 0.212472 -1.8525e-20)
(1.168 0.194039 3.76722e-21)
(1.16165 0.176984 3.62721e-20)
(1.156 0.161176 -3.04749e-21)
(1.1509 0.14647 -1.23768e-20)
(1.14623 0.132763 -7.13431e-21)
(1.14191 0.11993 3.11927e-20)
(1.1379 0.107791 1.33538e-20)
(1.13403 0.0965468 -7.82863e-21)
(1.13004 0.0864752 -9.10904e-21)
(0.422518 0.113911 -9.01937e-20)
(0.986164 0.329294 -1.75293e-20)
(1.21154 0.40375 -1.29643e-19)
(1.25803 0.402696 1.4631e-19)
(1.24765 0.374038 1.8316e-19)
(1.22698 0.341927 7.15443e-20)
(1.20874 0.311622 -1.32584e-20)
(1.19406 0.284227 1.51189e-20)
(1.18233 0.259396 -7.67993e-20)
(1.17275 0.236818 5.53832e-20)
(1.16479 0.216184 -1.68754e-20)
(1.15801 0.197261 -1.29042e-20)
(1.15212 0.179817 -3.51594e-20)
(1.1469 0.163701 -1.07222e-20)
(1.1422 0.148754 1.66662e-20)
(1.1379 0.134851 -1.07562e-20)
(1.13392 0.121832 -1.41458e-20)
(1.13024 0.109545 4.08933e-21)
(1.12662 0.0982757 -2.54816e-21)
(1.12283 0.0881435 -2.11921e-20)
(0.454285 0.138329 -1.332e-19)
(1.00782 0.362223 2.5854e-20)
(1.21288 0.42808 6.27284e-20)
(1.24782 0.419252 -6.90881e-20)
(1.23383 0.385787 -2.51218e-19)
(1.21287 0.350928 2.12776e-20)
(1.19526 0.318792 9.16233e-20)
(1.18133 0.290068 -3.39618e-20)
(1.17031 0.264219 7.37879e-20)
(1.16139 0.240855 -1.95219e-20)
(1.15402 0.219603 4.94983e-20)
(1.1478 0.200204 6.76589e-21)
(1.14241 0.182386 6.85824e-22)
(1.13766 0.165971 -2.96729e-20)
(1.13339 0.150795 -1.36392e-20)
(1.12947 0.136709 -6.42577e-21)
(1.12587 0.123519 6.14145e-21)
(1.12253 0.11111 1.00464e-20)
(1.11916 0.0998274 1.76771e-20)
(1.11559 0.0896372 3.01632e-20)
(0.483129 0.164063 1.69888e-19)
(1.02385 0.394662 6.36523e-20)
(1.20988 0.451497 2.12846e-19)
(1.23501 0.435 1.04324e-19)
(1.21853 0.396961 8.23704e-20)
(1.1978 0.359479 -1.07849e-19)
(1.18108 0.325557 -9.70564e-20)
(1.16805 0.295527 -3.27787e-20)
(1.15785 0.268678 -1.83259e-20)
(1.14969 0.24455 -3.99443e-20)
(1.14299 0.2227 -6.19184e-20)
(1.13737 0.202838 -1.04315e-21)
(1.13254 0.184667 2.87238e-20)
(1.12828 0.167973 5.55519e-20)
(1.12447 0.152581 -5.54612e-20)
(1.12098 0.138323 1.19261e-20)
(1.11777 0.124981 -1.55978e-20)
(1.11477 0.112475 -6.25134e-21)
(1.11167 0.101197 -3.49319e-20)
(1.10834 0.0909482 -6.97626e-21)
(0.50864 0.190807 3.73478e-19)
(1.03442 0.426358 -3.54232e-20)
(1.20285 0.47385 -1.67029e-19)
(1.21981 0.449861 -2.3033e-19)
(1.20185 0.407487 -5.03706e-20)
(1.18181 0.367504 -2.71417e-22)
(1.16622 0.331845 1.30769e-19)
(1.15425 0.300546 1.05688e-19)
(1.14499 0.272723 7.10254e-20)
(1.13766 0.247856 -2.89374e-20)
(1.1317 0.225443 2.19394e-20)
(1.12674 0.205141 -2.06308e-20)
(1.1225 0.186633 -3.83419e-20)
(1.11879 0.169682 1.44056e-20)
(1.11546 0.154095 -4.97982e-21)
(1.11241 0.139682 1.29878e-20)
(1.10962 0.126209 1.85877e-20)
(1.10698 0.113633 -4.20032e-21)
(1.10415 0.102376 2.27268e-20)
(1.10108 0.0920738 -1.686e-20)
(0.530491 0.218232 -2.35319e-19)
(1.03973 0.457061 2.82758e-19)
(1.19208 0.494995 -1.26161e-19)
(1.20243 0.463748 -6.03141e-20)
(1.18387 0.417277 1.9018e-19)
(1.16497 0.374921 1.84888e-19)
(1.15074 0.337588 6.27062e-20)
(1.13994 0.305062 -4.84789e-20)
(1.13173 0.276314 -1.03552e-19)
(1.1253 0.250742 -1.74563e-21)
(1.12015 0.227793 1.20914e-20)
(1.11591 0.207082 2.75193e-20)
(1.11232 0.188265 2.50277e-20)
(1.10919 0.171081 -8.74368e-21)
(1.10637 0.155321 1.71483e-20)
(1.1038 0.140774 6.51159e-21)
(1.10144 0.127193 -9.38931e-21)
(1.09918 0.114573 1.45989e-20)
(1.09664 0.103353 1.32188e-20)
(1.09383 0.093007 7.16312e-21)
(0.548443 0.24599 3.78913e-20)
(1.03999 0.486525 -5.04433e-19)
(1.17785 0.514787 3.15247e-19)
(1.18304 0.476573 1.94101e-19)
(1.16467 0.426238 -1.95213e-20)
(1.14734 0.381647 -1.5905e-19)
(1.13463 0.342718 -1.32552e-20)
(1.12514 0.309029 -3.4023e-20)
(1.11808 0.279399 1.08182e-19)
(1.11264 0.253165 -9.20748e-21)
(1.10837 0.22972 -1.99427e-20)
(1.10491 0.208634 6.42702e-21)
(1.10201 0.189537 -6.76315e-21)
(1.09949 0.172149 -5.10465e-21)
(1.09723 0.156242 2.19018e-20)
(1.09515 0.141586 -3.03156e-20)
(1.09324 0.127924 2.66842e-21)
(1.09137 0.115286 -7.10441e-21)
(1.08913 0.10412 -6.56708e-21)
(1.08662 0.0937436 8.1818e-22)
(0.562338 0.273723 -4.72996e-19)
(1.03544 0.5145 4.8382e-20)
(1.16042 0.533083 -1.06771e-19)
(1.16181 0.488245 1.3953e-19)
(1.14441 0.434286 -2.68906e-20)
(1.12894 0.387586 -1.11778e-19)
(1.11791 0.347173 -1.12243e-19)
(1.10987 0.31238 2.30867e-20)
(1.10406 0.28193 -2.33142e-20)
(1.0997 0.255087 2.12657e-20)
(1.09639 0.231189 2.8393e-20)
(1.09375 0.20977 -1.91233e-20)
(1.09158 0.190429 -2.91101e-21)
(1.08972 0.172869 1.45501e-20)
(1.08803 0.156844 -1.98014e-20)
(1.08647 0.142105 5.26001e-21)
(1.08504 0.12839 7.62799e-21)
(1.08357 0.11576 -4.58194e-22)
(1.08165 0.104666 1.1866e-21)
(1.07947 0.0942767 -6.02082e-22)
(0.572095 0.301066 2.14617e-19)
(1.02632 0.540744 4.57029e-19)
(1.14002 0.549719 -4.54602e-19)
(1.13896 0.498658 2.63515e-20)
(1.12317 0.441343 -1.08863e-19)
(1.10976 0.392663 2.20564e-19)
(1.10062 0.350873 -6.5453e-20)
(1.09417 0.315064 -4.72224e-21)
(1.08972 0.283862 -1.97728e-20)
(1.08652 0.256471 2.48774e-20)
(1.08421 0.232171 -4.92154e-21)
(1.08246 0.210463 -1.2357e-20)
(1.08107 0.190919 -2.13569e-22)
(1.07989 0.173222 -3.3947e-21)
(1.07881 0.15711 4.43352e-21)
(1.07779 0.142319 -7.06074e-21)
(1.07685 0.128582 3.98115e-23)
(1.0758 0.115985 -4.8696e-21)
(1.07422 0.10498 -4.88691e-21)
(1.07238 0.094602 4.74139e-21)
(0.577713 0.327664 -1.67277e-19)
(1.01293 0.565044 -1.62055e-19)
(1.11685 0.564512 7.32972e-20)
(1.11465 0.507709 1.62963e-20)
(1.10097 0.447315 -1.49298e-20)
(1.0899 0.396808 -1.47241e-19)
(1.08282 0.353754 5.10236e-20)
(1.07807 0.317026 -4.24741e-20)
(1.07507 0.285152 2.70678e-21)
(1.07311 0.25728 -9.64019e-21)
(1.07188 0.232636 2.30994e-21)
(1.07105 0.210689 -1.78439e-21)
(1.07048 0.190985 7.11149e-21)
(1.07002 0.173191 1.28232e-21)
(1.06958 0.157027 2.54427e-23)
(1.06913 0.142217 -5.5855e-21)
(1.06869 0.128489 5.09245e-21)
(1.06807 0.115951 4.25437e-21)
(1.06685 0.105053 9.48813e-21)
(1.06539 0.0947156 6.66344e-21)
(0.579268 0.353158 -3.89974e-19)
(0.995644 0.587245 5.74438e-19)
(1.09114 0.577319 1.89792e-19)
(1.08894 0.515227 -1.34789e-19)
(1.07789 0.452118 1.03533e-19)
(1.06941 0.399944 3.12033e-20)
(1.06455 0.355752 3.44156e-20)
(1.06163 0.318214 3.05636e-22)
(1.06017 0.285759 1.07965e-20)
(1.05952 0.25748 -4.75144e-21)
(1.05941 0.232556 -1.77066e-21)
(1.05957 0.210426 -1.03249e-20)
(1.05985 0.19061 -3.34263e-20)
(1.06014 0.172759 1.45272e-20)
(1.06036 0.15658 7.09246e-21)
(1.0605 0.141785 1.10239e-20)
(1.06057 0.128102 -1.45193e-20)
(1.0604 0.115646 3.2848e-22)
(1.05957 0.104873 1.39283e-20)
(1.05851 0.0946169 4.12927e-20)
(0.576912 0.377179 8.76192e-19)
(0.974773 0.607159 -4.54544e-19)
(1.06312 0.588044 5.66632e-20)
(1.06196 0.521069 -1.7088e-19)
(1.05404 0.455634 -5.6481e-20)
(1.04837 0.401998 -7.6081e-22)
(1.04587 0.356808 -9.58099e-21)
(1.04488 0.318581 -7.9505e-21)
(1.04506 0.285643 -1.28937e-21)
(1.04578 0.257041 -4.87152e-20)
(1.04686 0.231906 2.91883e-20)
(1.04803 0.209651 3.20759e-21)
(1.0492 0.189774 1.53866e-20)
(1.05026 0.17191 -2.40545e-20)
(1.05117 0.155755 3.18908e-20)
(1.05192 0.141014 1.09953e-20)
(1.05253 0.127408 -1.59188e-20)
(1.05282 0.115055 -3.19572e-21)
(1.0524 0.104426 -5.09131e-20)
(1.05177 0.0943042 -2.31626e-20)
(0.570861 0.399401 -4.23059e-19)
(0.950251 0.624369 -4.60307e-19)
(1.03327 0.596713 1.47695e-19)
(1.03394 0.525156 8.27606e-20)
(1.02951 0.457773 8.16237e-20)
(1.02685 0.402901 -4.44185e-21)
(1.02684 0.35687 -2.50112e-20)
(1.02789 0.318083 4.1956e-20)
(1.02977 0.28477 -7.69358e-20)
(1.03193 0.255933 1.78625e-20)
(1.03424 0.230662 -2.74002e-20)
(1.03647 0.208346 1.00505e-20)
(1.03856 0.188463 -5.88959e-20)
(1.04043 0.170633 2.36683e-20)
(1.04204 0.154542 -4.73061e-20)
(1.04342 0.139894 2.14775e-20)
(1.04457 0.1264 9.63409e-21)
(1.04532 0.114163 2.9982e-20)
(1.04533 0.103685 4.56465e-20)
(1.04517 0.0937672 -6.07606e-21)
(0.561344 0.419693 1.43158e-19)
(0.922182 0.63849 4.58882e-19)
(1.00188 0.603152 -1.15502e-19)
(1.00503 0.527492 1.10178e-19)
(1.00442 0.458456 -2.68065e-20)
(1.00493 0.402587 -3.10575e-20)
(1.00754 0.355889 6.27724e-20)
(1.01071 0.316682 -5.08406e-20)
(1.01437 0.283108 2.14165e-21)
(1.01802 0.254131 1.39012e-20)
(1.02159 0.228804 5.08074e-22)
(1.02491 0.206494 1.07603e-19)
(1.02795 0.186661 5.30783e-20)
(1.03065 0.168914 -2.67337e-20)
(1.033 0.152931 3.06324e-20)
(1.03501 0.138419 -2.10605e-20)
(1.03671 0.125075 -1.16839e-21)
(1.03793 0.112963 -1.14895e-19)
(1.0384 0.102625 -5.19284e-20)
(1.03873 0.0929809 -4.1001e-20)
(0.548564 0.437918 3.1178e-20)
(0.891146 0.649479 1.38507e-19)
(0.969071 0.607072 -1.0677e-19)
(0.975378 0.527991 -1.31377e-20)
(0.978871 0.457619 -4.16224e-20)
(0.982708 0.400997 -2.65914e-20)
(0.988038 0.35382 -4.41047e-20)
(0.993406 0.314341 -2.82577e-20)
(0.998902 0.280629 -2.89405e-20)
(1.00408 0.251613 5.77077e-20)
(1.00897 0.226313 -5.42031e-20)
(1.01341 0.20408 -1.68825e-19)
(1.01741 0.184356 -3.99265e-20)
(1.02096 0.166742 -1.92269e-20)
(1.02406 0.150913 5.85046e-20)
(1.02672 0.136581 -9.40842e-21)
(1.02896 0.123431 1.1709e-20)
(1.03068 0.11146 -2.2773e-20)
(1.03165 0.101249 7.81317e-20)
(1.03251 0.0919467 -5.04305e-20)
(0.532496 0.453671 7.05099e-20)
(0.857882 0.657476 -2.70176e-19)
(0.935118 0.608351 4.31867e-20)
(0.94515 0.52657 -3.43609e-20)
(0.952983 0.455205 1.69714e-20)
(0.96027 0.398083 1.4528e-19)
(0.96841 0.350625 -1.26588e-19)
(0.976043 0.311032 -3.29896e-20)
(0.983426 0.277311 7.53526e-21)
(0.99018 0.24836 -2.12931e-19)
(0.996398 0.223174 3.72537e-20)
(1.00198 0.201091 1.35452e-19)
(1.00698 0.181539 1.33511e-19)
(1.01139 0.16411 3.28461e-20)
(1.01525 0.148478 -4.92387e-20)
(1.01856 0.13437 -1.88073e-20)
(1.02135 0.121457 5.78557e-20)
(1.02361 0.109655 5.71061e-21)
(1.02522 0.099592 9.6567e-21)
(1.02669 0.0907922 8.49407e-20)
(0.513257 0.466381 -3.34383e-19)
(0.822737 0.662286 1.13586e-19)
(0.900233 0.606992 1.48508e-20)
(0.914509 0.523154 -3.88743e-22)
(0.926878 0.451164 1.11748e-19)
(0.937716 0.393803 -6.7939e-20)
(0.94874 0.346272 9.0481e-20)
(0.958691 0.306731 -6.32468e-20)
(0.967999 0.273133 -1.03422e-19)
(0.976354 0.244357 3.29594e-19)
(0.98393 0.219377 8.32569e-21)
(0.990665 0.197519 -1.91931e-20)
(0.996666 0.178201 -5.95704e-20)
(1.00195 0.16101 -5.01542e-21)
(1.00658 0.14562 -4.18499e-21)
(1.01054 0.13177 3.80723e-20)
(1.0139 0.119124 -3.20577e-20)
(1.01679 0.107497 -2.99679e-20)
(1.01926 0.0975885 6.56756e-21)
(1.02149 0.0896471 -7.69146e-20)