/*--------------------------------*- C++ -*----------------------------------*\
  =========                 |
  \\      /  F ield         | OpenFOAM: The Open Source CFD Toolbox
   \\    /   O peration     | Website:  https://openfoam.org
    \\  /    A nd           | Version:  7
     \\/     M anipulation  |
\*---------------------------------------------------------------------------*/
FoamFile
{
    version     2.0;
    format      ascii;
    class       volVectorField;
    location    "30";
    object      U;
}
// * * * * * * * * * * * * * * * * * * * * * * * * * * * * * * * * * * * * * //

dimensions      [0 1 -1 0 0 0 0];

internalField   nonuniform List<vector> 
2625
(
(0.0297411 -0.00459464 -4.39968e-21)
(0.0384509 -0.00513342 2.12154e-21)
(0.0479319 -0.00562067 1.12413e-21)
(0.0580672 -0.00604293 -7.36649e-21)
(0.0687221 -0.00638425 -3.80537e-21)
(0.0797335 -0.00662617 -1.20043e-21)
(0.0909361 -0.00674907 -6.57121e-21)
(0.102041 -0.00672561 4.41882e-21)
(0.113044 -0.00658462 -7.52372e-22)
(0.0308772 -0.00765683 2.56817e-21)
(0.0397342 -0.00855209 5.58077e-21)
(0.0493648 -0.00936154 3.97421e-21)
(0.0596517 -0.0100628 1.74259e-20)
(0.0704597 -0.0106292 -1.45648e-22)
(0.0816249 -0.01103 -4.54509e-21)
(0.0929832 -0.0112323 -2.55264e-21)
(0.104229 -0.0111909 -6.27694e-21)
(0.115427 -0.0109503 1.51209e-20)
(0.0325816 -0.0107178 -2.09512e-21)
(0.0416592 -0.0119654 -1.65499e-20)
(0.0515136 -0.0130931 -1.15058e-21)
(0.0620274 -0.0140695 2.50188e-21)
(0.0730646 -0.0148573 -8.80812e-24)
(0.0844599 -0.0154135 1.108e-20)
(0.0960514 -0.0156913 6.70028e-21)
(0.107509 -0.0156285 -1.16012e-20)
(0.118997 -0.0152798 -4.86447e-21)
(0.0348547 -0.0137767 5.25997e-21)
(0.0442257 -0.0153712 -1.00226e-20)
(0.054378 -0.0168115 1.39339e-20)
(0.0651933 -0.0180576 -3.12408e-21)
(0.0765352 -0.0190618 -7.72681e-21)
(0.0882362 -0.0197683 -4.9383e-21)
(0.100137 -0.0201163 1.11011e-20)
(0.111875 -0.0200273 5.87258e-21)
(0.123749 -0.0195589 -1.18957e-20)
(0.0376973 -0.0168328 2.40145e-20)
(0.0474338 -0.0187667 1.4883e-20)
(0.057957 -0.0205125 -1.84033e-20)
(0.0691479 -0.0220216 -1.75788e-20)
(0.080869 -0.0232355 -8.20565e-22)
(0.0929505 -0.024086 7.12869e-21)
(0.105237 -0.0244975 -5.7245e-21)
(0.117323 -0.0243761 1.36051e-21)
(0.129676 -0.023773 1.96343e-20)
(0.0411098 -0.0198849 -5.88963e-21)
(0.0512834 -0.0221493 1.80348e-20)
(0.0622499 -0.0241919 4.54205e-21)
(0.0738893 -0.0259555 -1.83861e-20)
(0.0860631 -0.0273712 1.99232e-20)
(0.0985986 -0.0283579 5.05165e-21)
(0.111344 -0.0288246 2.20757e-20)
(0.123845 -0.0286637 1.19974e-20)
(0.136769 -0.0279076 -3.57276e-20)
(0.045093 -0.0229316 -2.09137e-20)
(0.0557743 -0.0255159 -6.61016e-21)
(0.0672553 -0.0278449 1.44668e-20)
(0.0794151 -0.0298532 2.82836e-20)
(0.092114 -0.0314612 -7.92006e-21)
(0.105176 -0.0325752 -1.37295e-20)
(0.118453 -0.0330874 -5.30982e-20)
(0.131434 -0.0328785 -7.06864e-21)
(0.145019 -0.0319483 4.68477e-21)
(0.0609062 -0.0288629 -2.21605e-20)
(0.072972 -0.0314665 2.6517e-20)
(0.0857227 -0.033708 1.65951e-21)
(0.0990173 -0.0354975 -3.67594e-20)
(0.112676 -0.0367284 -2.04013e-20)
(0.126556 -0.0372754 2.45987e-21)
(0.14008 -0.0370092 -2.07884e-20)
(0.154411 -0.0358804 -5.70452e-21)
(0.0666789 -0.0321867 1.28328e-20)
(0.0793981 -0.0350512 -4.94299e-20)
(0.0928087 -0.037513 1.386e-20)
(0.106768 -0.0394719 5.51938e-21)
(0.121092 -0.0408082 5.11156e-20)
(0.135645 -0.0413779 3.00633e-20)
(0.149773 -0.0410439 2.81301e-21)
(0.164934 -0.0396897 9.99771e-21)
(0.0730918 -0.0354827 -8.76974e-21)
(0.0865316 -0.0385931 2.71651e-20)
(0.100669 -0.0412609 -4.19381e-20)
(0.115361 -0.0433756 1.01788e-20)
(0.130416 -0.0448046 -1.50614e-21)
(0.145708 -0.0453836 -1.73026e-20)
(0.160498 -0.0449709 1.16344e-20)
(0.17657 -0.0433614 -2.76442e-20)
(0.0801444 -0.0387461 1.46871e-20)
(0.0943703 -0.0420858 -2.05355e-20)
(0.1093 -0.0449436 2.56617e-20)
(0.124789 -0.0471992 2.32046e-20)
(0.14064 -0.0487071 -1.00105e-21)
(0.156734 -0.0492813 -1.52711e-20)
(0.172243 -0.0487781 3.97336e-20)
(0.189301 -0.0468812 1.18473e-20)
(0.0878357 -0.0419717 3.02991e-20)
(0.102911 -0.0455222 -2.51767e-20)
(0.118697 -0.0485527 -3.2588e-20)
(0.135045 -0.0509331 -1.06331e-20)
(0.151753 -0.0525049 -3.07563e-20)
(0.168712 -0.0530591 3.15373e-20)
(0.184992 -0.0524532 -8.23406e-20)
(0.203107 -0.0502348 3.24249e-20)
(0.0961647 -0.0451533 -4.83093e-20)
(0.112152 -0.0488949 1.69009e-20)
(0.128854 -0.0520791 2.48037e-20)
(0.146121 -0.0545668 -2.52269e-20)
(0.163745 -0.0561867 -6.37632e-21)
(0.181626 -0.0567049 2.43371e-20)
(0.198728 -0.0559839 5.71872e-20)
(0.217967 -0.0534077 -2.49804e-20)
(0.10513 -0.0482844 6.62344e-20)
(0.122087 -0.0521956 5.30523e-20)
(0.139764 -0.0555133 -4.95104e-20)
(0.158008 -0.0580895 -3.48037e-20)
(0.176603 -0.0597405 3.26988e-20)
(0.195462 -0.0602062 -5.20233e-20)
(0.213431 -0.0593575 1.01433e-21)
(0.233857 -0.0563859 -2.22924e-20)
(0.11473 -0.0513578 -6.63931e-20)
(0.132715 -0.0554156 -4.4548e-20)
(0.151422 -0.0588449 6.29477e-20)
(0.170696 -0.0614897 1.50054e-20)
(0.190315 -0.0631541 1.4056e-20)
(0.210202 -0.0635498 3.81891e-20)
(0.229081 -0.0625611 1.22885e-20)
(0.25075 -0.0591552 -1.29128e-20)
(0.124962 -0.0543657 -1.64004e-20)
(0.144028 -0.0585455 4.0507e-20)
(0.163818 -0.0620631 -2.33087e-20)
(0.184174 -0.0647551 1.88316e-20)
(0.204865 -0.0664143 1.72565e-20)
(0.225827 -0.0667224 -4.77011e-20)
(0.245655 -0.0655817 1.44685e-20)
(0.268618 -0.0617018 8.57255e-20)
(0.135824 -0.0572996 6.29243e-21)
(0.156023 -0.0615751 -6.37585e-20)
(0.176945 -0.0651562 -3.67054e-20)
(0.19843 -0.0678729 4.95278e-20)
(0.220237 -0.0695076 -6.81311e-20)
(0.242318 -0.06971 1.17646e-20)
(0.26313 -0.0684058 -7.47804e-20)
(0.287431 -0.0640121 -5.73922e-20)
(0.168693 -0.0644937 8.46508e-20)
(0.190794 -0.0681121 3.06395e-20)
(0.21345 -0.0708298 -6.6832e-20)
(0.236414 -0.0724197 1.5131e-20)
(0.259652 -0.0724983 2.36201e-20)
(0.281478 -0.07102 6.45828e-20)
(0.307157 -0.0660726 9.73148e-21)
(0.182032 -0.0672901 -3.65276e-20)
(0.205353 -0.0709181 4.21891e-20)
(0.229221 -0.0736117 -3.44064e-20)
(0.253377 -0.0751359 -1.96431e-21)
(0.277806 -0.0750723 -1.87936e-20)
(0.300673 -0.0734105 6.05909e-21)
(0.327761 -0.0678701 2.25863e-20)
(0.19603 -0.0699524 3.73427e-20)
(0.220611 -0.0735607 8.80502e-21)
(0.245726 -0.0762039 4.38953e-20)
(0.271106 -0.0776407 4.16853e-20)
(0.296755 -0.0774167 -5.70485e-20)
(0.320683 -0.0755633 -1.09027e-20)
(0.349207 -0.0693921 7.07037e-20)
(0.210681 -0.0724681 -2.51112e-20)
(0.236556 -0.076026 6.53502e-21)
(0.262948 -0.0785913 3.31279e-20)
(0.289579 -0.0799183 4.95732e-20)
(0.316471 -0.0795155 4.81372e-20)
(0.341478 -0.077464 2.94481e-20)
(0.371455 -0.0706259 -1.26822e-20)
(0.225973 -0.0748244 -1.48024e-20)
(0.253174 -0.0782997 -5.7909e-21)
(0.28087 -0.0807581 -2.25449e-20)
(0.308773 -0.081952 -8.19555e-20)
(0.336925 -0.0813525 2.0866e-20)
(0.363023 -0.0790983 -5.86628e-20)
(0.394466 -0.0715595 -2.45536e-21)
(0.241896 -0.077008 4.43297e-20)
(0.270449 -0.0803672 2.98667e-20)
(0.299471 -0.0826884 -2.21128e-20)
(0.328662 -0.083725 1.13106e-20)
(0.358087 -0.0829108 -2.1357e-20)
(0.385283 -0.0804514 5.61173e-20)
(0.418196 -0.0721813 -1.25271e-20)
(0.288367 -0.0822134 -3.99268e-20)
(0.31873 -0.0843657 1.34964e-20)
(0.349221 -0.0852198 7.96522e-20)
(0.379924 -0.0841731 -2.77661e-20)
(0.40822 -0.0815083 -5.56326e-20)
(0.442601 -0.0724799 -4.92031e-20)
(0.306908 -0.0838233 -6.108e-20)
(0.338624 -0.0857737 -7.90432e-20)
(0.37042 -0.0864188 1.66475e-20)
(0.402402 -0.0851216 -1.72959e-20)
(0.431795 -0.0822537 2.06486e-20)
(0.467635 -0.0724444 4.93159e-20)
(0.326053 -0.0851821 -1.56835e-20)
(0.35913 -0.0868958 1.03535e-19)
(0.392231 -0.0873042 -1.13846e-19)
(0.425484 -0.0857383 9.15457e-21)
(0.455967 -0.0826717 2.4548e-20)
(0.493251 -0.072064 5.31403e-20)
(0.345782 -0.0862749 9.17502e-20)
(0.380222 -0.087716 -9.69279e-20)
(0.414622 -0.0878582 5.86868e-20)
(0.449132 -0.0860047 1.97609e-21)
(0.480695 -0.0827463 2.11648e-20)
(0.519397 -0.0713281 -1.56682e-19)
(0.366073 -0.0870877 3.52848e-20)
(0.401872 -0.0882188 4.96078e-20)
(0.43756 -0.0880632 -3.07328e-20)
(0.473309 -0.0859021 2.072e-20)
(0.505935 -0.0824604 7.26563e-20)
(0.546024 -0.0702259 -4.47723e-21)
(0.424051 -0.0883895 -3.5266e-20)
(0.461013 -0.0879024 2.3091e-20)
(0.497973 -0.0854118 1.98197e-20)
(0.531644 -0.0817961 -1.30193e-19)
(0.573078 -0.0687465 1.09421e-20)
(0.44673 -0.088215 8.04044e-20)
(0.484946 -0.0873599 4.43004e-20)
(0.523083 -0.0845151 -7.75338e-20)
(0.557779 -0.0807339 -4.41686e-20)
(0.600505 -0.0668776 1.89928e-20)
(0.469877 -0.0876837 -5.82055e-20)
(0.509323 -0.0864213 -1.91358e-20)
(0.548598 -0.0831943 -6.93918e-20)
(0.584299 -0.0792524 5.28089e-21)
(0.628248 -0.0646061 3.00669e-20)
(0.534108 -0.0850748 -4.38817e-20)
(0.574477 -0.0814326 1.25463e-19)
(0.611166 -0.0773269 3.03134e-20)
(0.656247 -0.0619156 -4.39062e-20)
(0.559263 -0.0833123 8.73164e-20)
(0.600681 -0.0792161 -1.7022e-20)
(0.638345 -0.0749283 6.32782e-21)
(0.68444 -0.0587858 -2.90001e-20)
(0.584752 -0.0811304 -2.3497e-20)
(0.627172 -0.0765353 -8.73641e-20)
(0.665815 -0.0720223 1.18126e-19)
(0.712761 -0.0551935 1.05282e-20)
(0.653915 -0.0733887 5.81361e-20)
(0.693565 -0.0685708 -1.09548e-19)
(0.741145 -0.0511145 7.5314e-20)
(0.680879 -0.0697876 -2.33264e-21)
(0.721599 -0.0645281 6.56657e-20)
(0.769519 -0.0464974 3.64916e-20)
(0.708036 -0.0657625 -9.77683e-20)
(0.74993 -0.0598207 -6.79603e-20)
(0.797743 -0.0411815 -3.87338e-20)
(0.778627 -0.0543545 1.05599e-19)
(0.825616 -0.034991 -8.2551e-21)
(0.807958 -0.0482245 -7.38472e-20)
(0.853694 -0.028632 -1.01913e-19)
(0.838081 -0.0421082 -1.5882e-20)
(0.885495 -0.0244562 -2.70955e-20)
(0.91541 -0.024508 1.20407e-19)
(0.942934 -0.0241658 3.45301e-20)
(0.191553 -0.00189268 -2.85788e-22)
(0.19769 -0.00190162 8.67997e-23)
(0.203945 -0.00190981 3.96441e-22)
(0.210318 -0.0019169 -6.5119e-22)
(0.216807 -0.0019226 4.29924e-22)
(0.223408 -0.0019267 9.55089e-23)
(0.230117 -0.00192903 -4.47215e-22)
(0.236931 -0.00192949 1.18695e-22)
(0.243843 -0.00192801 1.39502e-22)
(0.250849 -0.00192455 1.21073e-23)
(0.257941 -0.00191912 3.75201e-23)
(0.265114 -0.00191174 -1.13582e-22)
(0.272362 -0.00190247 2.6797e-23)
(0.279677 -0.00189136 -2.85896e-23)
(0.287054 -0.00187851 2.94119e-23)
(0.294486 -0.001864 2.9853e-23)
(0.301966 -0.00184792 1.84754e-23)
(0.309489 -0.00183038 -3.66905e-23)
(0.317047 -0.00181149 -3.14464e-23)
(0.324635 -0.00179134 1.43803e-24)
(0.332248 -0.00177004 1.19416e-22)
(0.339879 -0.0017477 2.1153e-23)
(0.347523 -0.00172441 -3.50381e-23)
(0.355175 -0.00170027 4.62121e-23)
(0.36283 -0.00167537 -6.30746e-24)
(0.370483 -0.00164981 -7.20577e-23)
(0.378129 -0.00162366 -9.82058e-24)
(0.385765 -0.00159701 1.78344e-23)
(0.393385 -0.00156993 4.33231e-23)
(0.400986 -0.00154249 -1.57818e-23)
(0.408565 -0.00151477 -4.15904e-24)
(0.416117 -0.00148681 -4.60185e-23)
(0.120832 -0.0061913 4.03678e-22)
(0.126227 -0.00598419 -5.26534e-22)
(0.131548 -0.00583498 -6.84045e-23)
(0.13684 -0.00572456 2.24703e-22)
(0.142124 -0.00564726 -6.96543e-22)
(0.147427 -0.00559741 -3.35509e-22)
(0.152774 -0.00556952 1.11097e-21)
(0.158181 -0.00555902 8.62678e-22)
(0.163666 -0.00556197 -1.47049e-21)
(0.169241 -0.005575 9.27094e-22)
(0.174915 -0.00559515 1.51809e-22)
(0.180697 -0.0056199 -1.0874e-21)
(0.186591 -0.00564709 6.30739e-22)
(0.192601 -0.00567486 -2.11538e-22)
(0.19873 -0.00570167 3.75451e-22)
(0.204977 -0.00572621 1.53243e-22)
(0.211341 -0.00574744 -3.57181e-22)
(0.217821 -0.00576451 -3.31955e-22)
(0.224413 -0.00577676 3.28443e-22)
(0.231113 -0.00578372 -1.13586e-22)
(0.237916 -0.00578506 -5.01333e-23)
(0.244818 -0.00578056 6.31703e-22)
(0.251812 -0.00577015 6.52265e-23)
(0.258893 -0.00575383 -7.47704e-22)
(0.266055 -0.00573167 -1.44802e-22)
(0.27329 -0.00570384 6.78006e-22)
(0.280593 -0.00567052 -1.41768e-22)
(0.287957 -0.00563197 -2.54627e-23)
(0.295375 -0.00558844 -3.6015e-22)
(0.302842 -0.00554022 -7.83994e-25)
(0.310351 -0.00548763 1.77276e-22)
(0.317895 -0.00543098 1.72387e-22)
(0.32547 -0.00537057 -3.48391e-22)
(0.333068 -0.00530672 -1.57163e-22)
(0.340685 -0.00523974 3.82202e-22)
(0.348315 -0.00516992 1.51334e-22)
(0.355952 -0.00509756 -4.13803e-22)
(0.363593 -0.00502293 -5.4201e-23)
(0.371231 -0.0049463 2.66468e-22)
(0.378863 -0.00486792 -2.93779e-23)
(0.386485 -0.00478803 5.02602e-23)
(0.394091 -0.00470686 -4.07585e-23)
(0.401678 -0.00462462 1.76124e-22)
(0.409242 -0.00454151 -1.86012e-22)
(0.41678 -0.00445771 -2.82704e-23)
(0.12323 -0.0102959 -1.38173e-21)
(0.128573 -0.00995411 2.52686e-21)
(0.133856 -0.00970779 9.40987e-22)
(0.139119 -0.00952543 -2.86459e-21)
(0.144377 -0.00939796 6.96015e-22)
(0.149657 -0.00931595 2.86628e-22)
(0.154982 -0.00927031 2.31169e-22)
(0.160371 -0.00925343 -1.06341e-21)
(0.165839 -0.00925884 1.18532e-21)
(0.171397 -0.00928088 5.02782e-23)
(0.177055 -0.0093147 -4.76696e-22)
(0.182822 -0.00935609 -2.568e-23)
(0.1887 -0.00940146 1.33972e-21)
(0.194695 -0.00944774 -1.88423e-21)
(0.200808 -0.00949236 3.07058e-22)
(0.207039 -0.00953318 3.06333e-22)
(0.213386 -0.00956843 1.37939e-21)
(0.219848 -0.00959673 -9.30839e-22)
(0.226421 -0.009617 -5.97157e-22)
(0.233102 -0.00962844 1.61364e-21)
(0.239885 -0.00963052 -2.00937e-21)
(0.246765 -0.00962289 6.39339e-22)
(0.253738 -0.00960542 -2.65627e-22)
(0.260796 -0.00957812 5.63509e-22)
(0.267933 -0.00954112 3.26005e-22)
(0.275144 -0.00949468 -1.30591e-21)
(0.282422 -0.00943913 1.69522e-21)
(0.28976 -0.00937486 -1.4181e-21)
(0.297152 -0.00930234 1.09525e-21)
(0.304592 -0.00922204 -1.1314e-21)
(0.312073 -0.00913446 1.18166e-21)
(0.31959 -0.00904013 1.82018e-23)
(0.327136 -0.00893957 -1.19634e-21)
(0.334706 -0.00883329 3.13836e-22)
(0.342295 -0.0087218 2.51462e-22)
(0.349896 -0.00860561 -5.45277e-24)
(0.357505 -0.00848518 -1.02206e-23)
(0.365116 -0.00836099 -7.49335e-25)
(0.372726 -0.00823347 -3.18587e-22)
(0.38033 -0.00810305 1.44979e-22)
(0.387922 -0.00797012 4.57911e-22)
(0.3955 -0.00783505 -4.15739e-23)
(0.403059 -0.00769821 -3.66863e-23)
(0.410595 -0.00755992 -1.35437e-22)
(0.418105 -0.0074205 -4.31062e-23)
(0.126823 -0.0143662 -5.82155e-22)
(0.132088 -0.0138947 -9.71089e-22)
(0.137314 -0.0135549 3.87573e-21)
(0.142533 -0.0133031 -4.10877e-21)
(0.147752 -0.0131275 2.96357e-21)
(0.152997 -0.0130149 5.7007e-22)
(0.158292 -0.0129528 -1.49986e-21)
(0.163652 -0.0129305 1.15573e-21)
(0.169094 -0.0129391 -9.6804e-22)
(0.174627 -0.0129707 3.7618e-22)
(0.180262 -0.0130185 -9.48429e-22)
(0.186005 -0.0130767 5.40963e-22)
(0.191861 -0.0131404 -8.54507e-22)
(0.197832 -0.0132051 -3.88594e-22)
(0.203921 -0.0132675 -1.19986e-22)
(0.210127 -0.0133244 1.87056e-21)
(0.216449 -0.0133735 2.55974e-22)
(0.222884 -0.0134128 -2.54005e-21)
(0.229429 -0.0134409 1.25244e-21)
(0.23608 -0.0134566 1.3483e-21)
(0.242833 -0.0134592 -9.14107e-22)
(0.249682 -0.0134482 -6.61919e-22)
(0.256621 -0.0134235 9.13806e-22)
(0.263644 -0.0133851 -6.26664e-22)
(0.270746 -0.0133331 -7.43414e-23)
(0.27792 -0.013268 -6.21962e-22)
(0.28516 -0.0131902 4.55902e-22)
(0.292459 -0.0131002 1.30233e-22)
(0.299812 -0.0129987 3.3636e-22)
(0.307211 -0.0128864 -4.65232e-22)
(0.314651 -0.012764 5.60108e-23)
(0.322127 -0.0126321 1.28523e-22)
(0.329631 -0.0124916 -6.28006e-22)
(0.337158 -0.0123431 -1.77451e-23)
(0.344704 -0.0121873 7.80352e-22)
(0.352262 -0.012025 1.38485e-22)
(0.359828 -0.0118568 -6.45438e-22)
(0.367397 -0.0116833 9.99531e-22)
(0.374964 -0.0115052 -3.09921e-22)
(0.382525 -0.011323 -4.46657e-22)
(0.390075 -0.0111374 4.88451e-22)
(0.39761 -0.0109487 8.57758e-23)
(0.405126 -0.0107576 -5.16422e-22)
(0.412621 -0.0105645 -4.96533e-23)
(0.420089 -0.0103698 2.50492e-22)
(0.131606 -0.0183883 -3.11825e-21)
(0.136767 -0.0177943 5.47984e-21)
(0.141917 -0.0173658 -4.79163e-22)
(0.147078 -0.0170482 1.35677e-21)
(0.152244 -0.0168273 2.91816e-21)
(0.157443 -0.0166865 -1.47289e-21)
(0.162696 -0.0166096 -6.95681e-22)
(0.168019 -0.0165832 5.77077e-24)
(0.173426 -0.016596 -5.79441e-21)
(0.178926 -0.0166378 4.45885e-21)
(0.184529 -0.0167002 1.76387e-21)
(0.190241 -0.0167755 -1.58073e-21)
(0.196066 -0.0168576 -8.28218e-22)
(0.202006 -0.0169408 -1.19743e-21)
(0.208063 -0.0170208 3.74849e-21)
(0.214236 -0.0170936 -2.5364e-21)
(0.220523 -0.0171563 -2.30664e-21)
(0.226923 -0.0172063 -3.09554e-22)
(0.233431 -0.0172418 7.58972e-22)
(0.240043 -0.0172615 -4.59491e-22)
(0.246754 -0.0172643 4.30514e-21)
(0.25356 -0.0172497 -3.77238e-21)
(0.260455 -0.0172175 1.97062e-21)
(0.267433 -0.0171677 -1.46826e-21)
(0.274487 -0.0171007 1.02344e-22)
(0.281612 -0.0170168 2.77588e-21)
(0.288801 -0.0169166 -3.64761e-22)
(0.296049 -0.016801 -1.77689e-21)
(0.303348 -0.0166706 -4.40101e-22)
(0.310694 -0.0165264 -1.85284e-22)
(0.31808 -0.0163692 1.49486e-21)
(0.325499 -0.0162001 -2.18536e-21)
(0.332948 -0.0160198 1.94628e-21)
(0.340419 -0.0158293 -7.83345e-22)
(0.347908 -0.0156296 -3.12425e-22)
(0.355409 -0.0154215 1.09884e-22)
(0.362918 -0.0152059 2.88588e-22)
(0.370429 -0.0149836 -6.51067e-23)
(0.377939 -0.0147553 9.54871e-23)
(0.385442 -0.0145218 -3.51243e-22)
(0.392936 -0.0142839 6.05431e-22)
(0.400414 -0.0140422 -2.74889e-22)
(0.407875 -0.0137973 -6.09046e-23)
(0.415313 -0.0135498 -3.98843e-23)
(0.422727 -0.0133003 3.54411e-22)
(0.137569 -0.0223486 9.47383e-22)
(0.142603 -0.021641 3.39621e-22)
(0.147658 -0.0211303 6.58213e-22)
(0.152746 -0.0207513 -4.87783e-21)
(0.157848 -0.0204888 5.63914e-21)
(0.162989 -0.0203226 -3.56791e-21)
(0.16819 -0.0202332 4.11048e-22)
(0.173466 -0.0202046 -1.37804e-21)
(0.178828 -0.0202228 2.21024e-21)
(0.184288 -0.0202759 1.31621e-21)
(0.189851 -0.0203533 6.07118e-22)
(0.195524 -0.0204462 -2.69725e-21)
(0.20131 -0.0205468 8.57918e-22)
(0.207211 -0.0206485 -1.91882e-21)
(0.213227 -0.0207459 3.08604e-21)
(0.219359 -0.0208344 1.05682e-23)
(0.225603 -0.0209103 -1.5426e-21)
(0.231957 -0.0209707 1.33479e-21)
(0.238418 -0.0210132 -3.12031e-21)
(0.244981 -0.0210364 3.82241e-21)
(0.251642 -0.021039 -3.18066e-21)
(0.258394 -0.0210205 1.29488e-21)
(0.265233 -0.0209805 -1.59121e-22)
(0.272153 -0.0209192 1.05085e-21)
(0.279148 -0.0208369 -3.64911e-22)
(0.286211 -0.0207341 1.26015e-21)
(0.293337 -0.0206116 -1.35405e-21)
(0.30052 -0.0204702 6.97884e-22)
(0.307754 -0.0203111 -1.26973e-21)
(0.315032 -0.0201351 1.57953e-21)
(0.322349 -0.0199434 -5.69209e-23)
(0.3297 -0.0197372 7.4981e-22)
(0.337078 -0.0195175 -2.18851e-21)
(0.344479 -0.0192855 1.89659e-21)
(0.351897 -0.0190423 -2.11748e-22)
(0.359327 -0.0187889 1.41773e-22)
(0.366765 -0.0185263 -1.39282e-21)
(0.374205 -0.0182556 1.20216e-21)
(0.381643 -0.0179777 -2.91283e-22)
(0.389076 -0.0176935 1.00107e-21)
(0.396498 -0.0174039 -7.19388e-22)
(0.403906 -0.0171097 -9.90268e-22)
(0.411297 -0.0168116 7.41089e-22)
(0.418666 -0.0165104 2.32146e-22)
(0.426011 -0.0162067 -3.31967e-22)
(0.144706 -0.0262333 3.41055e-21)
(0.149588 -0.0254229 -1.96309e-21)
(0.154529 -0.0248376 -1.7726e-21)
(0.159531 -0.0244028 2.04536e-21)
(0.164554 -0.0241033 5.5566e-22)
(0.169625 -0.0239153 -1.97194e-23)
(0.174765 -0.0238162 2.07944e-21)
(0.179984 -0.0237874 1.33447e-21)
(0.185294 -0.0238128 6.51931e-22)
(0.190703 -0.0238782 -5.67643e-21)
(0.196219 -0.0239716 2.78621e-22)
(0.201844 -0.0240824 1.34173e-21)
(0.207583 -0.0242018 3.03576e-21)
(0.213437 -0.0243219 -5.63465e-21)
(0.219405 -0.0244366 5.55802e-21)
(0.225486 -0.0245404 -5.85517e-21)
(0.231678 -0.0246291 6.57215e-22)
(0.237978 -0.0246994 8.12451e-23)
(0.244382 -0.0247485 3.84928e-21)
(0.250886 -0.0247747 -3.29702e-21)
(0.257485 -0.0247768 2.16444e-21)
(0.264172 -0.0247538 -2.84307e-21)
(0.270945 -0.0247057 1.06612e-21)
(0.277795 -0.0246325 -3.49429e-22)
(0.284718 -0.0245347 2.31538e-22)
(0.291707 -0.0244129 1.05556e-21)
(0.298758 -0.024268 3.02212e-22)
(0.305863 -0.024101 -1.17478e-21)
(0.313017 -0.0239132 2.1413e-21)
(0.320215 -0.0237057 -1.63125e-21)
(0.32745 -0.0234798 1.86571e-21)
(0.334718 -0.0232369 -2.85781e-21)
(0.342013 -0.0229782 2.44493e-21)
(0.349329 -0.0227051 -9.95518e-22)
(0.356662 -0.0224188 -9.06387e-22)
(0.364007 -0.0221206 -1.02153e-22)
(0.371359 -0.0218118 9.0886e-22)
(0.378714 -0.0214933 -1.47266e-21)
(0.386068 -0.0211665 3.52457e-22)
(0.393415 -0.0208323 1.07376e-21)
(0.400753 -0.0204917 3.91798e-22)
(0.408077 -0.0201457 -9.66279e-22)
(0.415384 -0.0197951 -3.03739e-22)
(0.422671 -0.0194409 -3.37279e-22)
(0.429933 -0.0190838 8.87173e-22)
(0.153003 -0.0300285 -1.74812e-21)
(0.15771 -0.029128 6.23336e-21)
(0.162519 -0.0284773 -4.69388e-21)
(0.167421 -0.0279932 1.10833e-20)
(0.172353 -0.0276619 -1.27118e-21)
(0.177344 -0.0274564 -8.36429e-21)
(0.18241 -0.027351 7.50083e-21)
(0.187563 -0.0273246 -5.13231e-21)
(0.192812 -0.0273589 1.01569e-21)
(0.198163 -0.0274382 -3.44441e-22)
(0.203622 -0.0275484 2.64916e-21)
(0.209193 -0.0276778 -5.24351e-21)
(0.214877 -0.0278161 1.53879e-21)
(0.220674 -0.0279547 1.86793e-21)
(0.226585 -0.0280864 4.14638e-22)
(0.232607 -0.0282052 -1.02477e-21)
(0.238738 -0.0283062 -4.49618e-22)
(0.244974 -0.0283858 -1.82549e-21)
(0.251312 -0.028441 -7.55201e-22)
(0.257746 -0.0284697 3.98601e-22)
(0.264271 -0.0284706 4.62754e-22)
(0.270884 -0.0284428 -3.29656e-22)
(0.277577 -0.0283862 1.66295e-21)
(0.284346 -0.0283008 -6.78479e-22)
(0.291185 -0.0281873 -5.86376e-22)
(0.298089 -0.0280463 -6.11431e-22)
(0.30505 -0.027879 3.17548e-21)
(0.312065 -0.0276864 -1.01785e-21)
(0.319127 -0.0274701 4.94238e-22)
(0.32623 -0.0272313 -1.57534e-21)
(0.33337 -0.0269715 9.47704e-22)
(0.340542 -0.0266923 1.61966e-21)
(0.347739 -0.0263951 -4.0944e-22)
(0.354957 -0.0260815 -1.33495e-21)
(0.362192 -0.0257528 6.80231e-22)
(0.369438 -0.0254106 -9.10543e-22)
(0.376691 -0.0250561 1.48813e-21)
(0.383947 -0.0246907 -1.58921e-21)
(0.391201 -0.0243157 1.1078e-21)
(0.39845 -0.0239323 5.25122e-22)
(0.40569 -0.0235416 -4.09653e-22)
(0.412917 -0.0231446 -6.98041e-22)
(0.420127 -0.0227425 1.94546e-22)
(0.427317 -0.0223362 -7.80971e-23)
(0.434484 -0.0219264 1.171e-21)
(0.162449 -0.0337204 -6.48721e-21)
(0.166957 -0.0327444 4.00792e-21)
(0.171618 -0.0320385 -1.14541e-21)
(0.176405 -0.0315127 5.79681e-21)
(0.181234 -0.0311558 -5.79479e-21)
(0.186132 -0.0309377 -3.18957e-21)
(0.191116 -0.0308298 -2.859e-21)
(0.196193 -0.0308088 4.19354e-21)
(0.201371 -0.0308544 3.46617e-21)
(0.206655 -0.030949 -7.5337e-21)
(0.21205 -0.0310772 5.25534e-21)
(0.217557 -0.0312258 -5.77513e-22)
(0.223177 -0.0313833 4.8188e-22)
(0.228911 -0.0315404 2.89032e-21)
(0.234756 -0.0316888 -8.95073e-21)
(0.24071 -0.0318222 1.0535e-20)
(0.24677 -0.0319351 -5.93156e-21)
(0.252932 -0.0320234 3.68469e-21)
(0.259193 -0.032084 -2.61296e-21)
(0.265547 -0.0321146 5.2825e-21)
(0.271989 -0.0321137 -4.25604e-21)
(0.278514 -0.0320806 1.1183e-21)
(0.285118 -0.032015 -6.0659e-21)
(0.291793 -0.0319171 8.02052e-21)
(0.298536 -0.0317876 -4.71188e-21)
(0.30534 -0.0316274 1.98592e-21)
(0.312201 -0.0314376 -2.8268e-21)
(0.319111 -0.0312197 2.48446e-21)
(0.326068 -0.030975 -8.55807e-22)
(0.333064 -0.0307053 5.32726e-22)
(0.340095 -0.030412 -2.13576e-22)
(0.347156 -0.0300971 -5.14672e-22)
(0.354243 -0.029762 1.19082e-21)
(0.361349 -0.0294084 -1.22085e-21)
(0.368471 -0.0290381 -6.96153e-22)
(0.375605 -0.0286525 1.34544e-21)
(0.382745 -0.0282533 -6.57961e-22)
(0.389889 -0.0278419 -1.36092e-22)
(0.397031 -0.0274196 2.23027e-22)
(0.404168 -0.0269879 -4.00118e-22)
(0.411296 -0.026548 -4.2314e-22)
(0.418412 -0.0261012 6.23423e-22)
(0.425512 -0.0256485 -8.02093e-22)
(0.432593 -0.025191 7.11622e-22)
(0.439652 -0.0247298 -6.37531e-22)
(0.173029 -0.0372952 -1.33768e-20)
(0.177316 -0.0362598 -6.52744e-22)
(0.181811 -0.0355105 7.26764e-21)
(0.18647 -0.0349516 -7.36855e-21)
(0.191183 -0.0345761 -1.89351e-21)
(0.195977 -0.034351 1.22021e-20)
(0.200868 -0.0342449 -9.07082e-21)
(0.20586 -0.0342327 3.19335e-21)
(0.210958 -0.0342922 -1.60491e-21)
(0.216167 -0.034404 3.06139e-21)
(0.221489 -0.0345514 -2.67664e-21)
(0.226924 -0.0347198 6.24468e-21)
(0.232472 -0.034897 -1.01526e-20)
(0.238133 -0.0350724 1.22233e-20)
(0.243903 -0.0352374 -1.95574e-21)
(0.249779 -0.0353848 -2.53485e-21)
(0.255759 -0.035509 3.86422e-23)
(0.261838 -0.0356054 4.62398e-23)
(0.268011 -0.0356706 -1.1525e-21)
(0.274274 -0.0357025 2.55786e-21)
(0.280621 -0.0356993 -2.55036e-21)
(0.287048 -0.0356603 4.82818e-21)
(0.293549 -0.0355853 -4.51454e-21)
(0.30012 -0.0354746 -1.5386e-21)
(0.306754 -0.0353289 -1.28855e-21)
(0.313446 -0.0351493 5.4745e-21)
(0.320192 -0.0349372 -3.1012e-21)
(0.326987 -0.0346939 -1.58566e-22)
(0.333824 -0.0344212 2.35948e-21)
(0.3407 -0.0341209 -4.63469e-21)
(0.347609 -0.0337947 1.67263e-21)
(0.354547 -0.0334446 9.42649e-22)
(0.361508 -0.0330723 2.46447e-21)
(0.36849 -0.0326796 -2.32287e-21)
(0.375486 -0.0322685 -1.20446e-22)
(0.382494 -0.0318405 -9.75172e-22)
(0.389508 -0.0313975 1.80003e-21)
(0.396526 -0.030941 3.29563e-23)
(0.403542 -0.0304725 -1.30029e-21)
(0.410554 -0.0299936 9.76351e-23)
(0.417558 -0.0295057 7.29013e-22)
(0.42455 -0.02901 -1.46108e-21)
(0.431527 -0.0285079 1.2025e-21)
(0.438486 -0.0280004 7.54881e-23)
(0.445424 -0.0274888 -1.77917e-24)
(0.184725 -0.0407393 -8.8924e-22)
(0.188771 -0.0396621 7.30352e-23)
(0.193083 -0.0388824 1.12856e-20)
(0.197601 -0.0382997 -1.06883e-20)
(0.202186 -0.0379135 3.01262e-21)
(0.206865 -0.0376877 -6.24674e-21)
(0.211652 -0.0375885 1.51794e-20)
(0.216549 -0.0375889 -2.71758e-21)
(0.221559 -0.0376651 6.51047e-22)
(0.226684 -0.0377962 -3.70895e-21)
(0.231924 -0.0379642 -5.46084e-21)
(0.237278 -0.0381533 3.47781e-21)
(0.242746 -0.0383504 -5.42347e-21)
(0.248324 -0.0385443 -9.56069e-22)
(0.25401 -0.0387255 9.39245e-21)
(0.2598 -0.0388865 -2.27771e-23)
(0.265689 -0.0390212 -2.51055e-21)
(0.271674 -0.039125 2.46751e-22)
(0.277749 -0.0391943 3.90772e-21)
(0.283909 -0.0392266 -3.25312e-21)
(0.290151 -0.0392204 -2.28742e-21)
(0.296467 -0.039175 -1.07635e-21)
(0.302855 -0.0390901 5.9851e-23)
(0.309307 -0.0389663 1.28319e-21)
(0.31582 -0.0388043 -7.13804e-22)
(0.322389 -0.0386053 1.62614e-21)
(0.329008 -0.0383708 -2.47169e-21)
(0.335672 -0.0381025 2.51609e-22)
(0.342378 -0.0378021 1.46933e-21)
(0.34912 -0.0374717 1.07019e-22)
(0.355893 -0.0371132 -3.34293e-21)
(0.362694 -0.0367285 3.896e-21)
(0.369518 -0.0363198 -8.15356e-22)
(0.376361 -0.0358889 2.61272e-21)
(0.383219 -0.0354379 -1.75923e-21)
(0.390087 -0.0349686 -3.08691e-21)
(0.396962 -0.0344828 3.26543e-22)
(0.40384 -0.0339824 2.66963e-21)
(0.410718 -0.0334689 -1.06603e-21)
(0.417592 -0.032944 4.58974e-22)
(0.424458 -0.0324092 -1.1248e-21)
(0.431314 -0.031866 8.58242e-22)
(0.438156 -0.0313157 -1.27147e-21)
(0.444981 -0.0307596 1.73315e-21)
(0.451786 -0.0301989 -3.06823e-22)
(0.197518 -0.0440387 6.57467e-22)
(0.201304 -0.0429392 3.84605e-21)
(0.205418 -0.0421431 -5.59585e-21)
(0.209781 -0.0415472 4.57902e-21)
(0.214226 -0.041159 -5.49056e-21)
(0.21878 -0.0409395 1.55859e-21)
(0.223453 -0.0408527 4.51645e-21)
(0.228246 -0.0408699 2.29483e-21)
(0.233158 -0.040966 -1.25438e-20)
(0.23819 -0.0411187 5.71615e-21)
(0.243339 -0.0413088 2.14713e-21)
(0.248604 -0.0415196 1.62276e-21)
(0.253982 -0.041737 -3.48279e-22)
(0.259469 -0.0419492 -2.11992e-21)
(0.265061 -0.0421464 -4.38843e-21)
(0.270753 -0.0423204 6.34037e-21)
(0.276542 -0.0424651 -7.32047e-21)
(0.282422 -0.0425755 3.64357e-21)
(0.288388 -0.0426479 -8.83151e-22)
(0.294435 -0.04268 5.67967e-22)
(0.300558 -0.0426702 3.07506e-21)
(0.306753 -0.0426178 -2.73375e-21)
(0.313014 -0.0425226 -3.17137e-21)
(0.319337 -0.0423853 5.80905e-21)
(0.325716 -0.0422068 -4.30304e-21)
(0.332147 -0.0419885 2.67062e-21)
(0.338626 -0.0417318 -2.46082e-21)
(0.345148 -0.0414387 2.75653e-21)
(0.351709 -0.0411112 -8.40357e-22)
(0.358303 -0.0407512 8.4021e-22)
(0.364929 -0.040361 -2.77229e-21)
(0.37158 -0.0399427 -3.83372e-22)
(0.378253 -0.0394985 1.37464e-21)
(0.384944 -0.0390304 -1.10399e-21)
(0.39165 -0.0385405 1.32227e-21)
(0.398366 -0.038031 -2.40894e-22)
(0.405089 -0.0375037 7.13251e-22)
(0.411815 -0.0369606 8.83784e-22)
(0.418542 -0.0364034 -1.44152e-21)
(0.425265 -0.0358339 4.29673e-22)
(0.431982 -0.0352536 7.14901e-22)
(0.438688 -0.0346643 -8.86798e-22)
(0.445383 -0.0340672 -1.52048e-21)
(0.452061 -0.0334638 1.07113e-21)
(0.458721 -0.0328553 9.90363e-22)
(0.211387 -0.04718 1.61783e-20)
(0.214895 -0.0460787 -7.01373e-21)
(0.218795 -0.0452816 -2.42102e-21)
(0.222992 -0.044684 4.20118e-21)
(0.227286 -0.0443031 2.23914e-21)
(0.231703 -0.0440977 8.75108e-22)
(0.236253 -0.0440293 -1.21071e-20)
(0.240932 -0.0440681 1.2321e-20)
(0.245737 -0.0441876 -1.22643e-20)
(0.250666 -0.0443645 7.66383e-21)
(0.255716 -0.0445783 -7.3161e-21)
(0.260883 -0.0448118 1.30671e-20)
(0.266161 -0.04505 -1.34014e-20)
(0.271547 -0.0452805 6.44712e-21)
(0.277036 -0.0454932 -4.02485e-21)
(0.282621 -0.0456797 -1.33156e-22)
(0.288298 -0.0458336 4.97657e-21)
(0.294062 -0.0459498 2.42502e-21)
(0.299908 -0.0460247 3.12318e-22)
(0.30583 -0.0460559 2.02024e-21)
(0.311823 -0.0460418 -4.53282e-22)
(0.317883 -0.0459818 3.95313e-22)
(0.324006 -0.045876 -8.0902e-21)
(0.330186 -0.045725 3.6493e-21)
(0.336418 -0.0455299 -2.94183e-21)
(0.3427 -0.0452922 3.83019e-21)
(0.349026 -0.0450136 8.51832e-22)
(0.355392 -0.0446962 -2.37348e-21)
(0.361795 -0.044342 1.36383e-21)
(0.36823 -0.0439532 -2.93542e-21)
(0.374693 -0.0435321 2.34511e-21)
(0.381182 -0.043081 7.58356e-22)
(0.387691 -0.0426023 -1.36599e-21)
(0.394218 -0.0420981 -2.53559e-21)
(0.400759 -0.0415707 2.26819e-21)
(0.40731 -0.0410223 7.24614e-22)
(0.413868 -0.0404548 -2.56633e-21)
(0.420431 -0.0398704 1.22588e-21)
(0.426993 -0.0392709 9.07722e-22)
(0.433554 -0.0386582 -8.22935e-22)
(0.440108 -0.038034 2.10021e-21)
(0.446655 -0.0373999 -3.18941e-21)
(0.453189 -0.0367576 3.85603e-22)
(0.45971 -0.0361084 2.03311e-21)
(0.466213 -0.0354538 -5.8564e-22)
(0.226309 -0.0501496 3.1512e-21)
(0.229522 -0.0490685 7.54209e-22)
(0.233195 -0.0482869 -2.7536e-21)
(0.237214 -0.0476998 -4.03466e-21)
(0.241345 -0.0473368 5.81273e-21)
(0.245615 -0.0471537 -2.6364e-21)
(0.250032 -0.0471103 -6.0281e-21)
(0.254587 -0.0471758 -2.44637e-22)
(0.259277 -0.0473226 3.66479e-21)
(0.264095 -0.0475263 -5.3779e-22)
(0.269036 -0.0477658 5.30828e-21)
(0.274095 -0.0480229 -4.16399e-21)
(0.279265 -0.0482823 -3.28944e-21)
(0.28454 -0.0485312 -1.46553e-21)
(0.289914 -0.0487591 2.68419e-21)
(0.295381 -0.0489575 -1.05864e-21)
(0.300936 -0.0491199 3.40228e-21)
(0.306573 -0.0492411 -3.32421e-21)
(0.312286 -0.0493176 -2.21341e-22)
(0.318071 -0.0493471 -2.03756e-21)