/*--------------------------------*- C++ -*----------------------------------*\
  =========                 |
  \\      /  F ield         | OpenFOAM: The Open Source CFD Toolbox
   \\    /   O peration     | Website:  https://openfoam.org
    \\  /    A nd           | Version:  7
     \\/     M anipulation  |
\*---------------------------------------------------------------------------*/
FoamFile
{
    version     2.0;
    format      ascii;
    class       volVectorField;
    location    "5";
    object      U;
}
// * * * * * * * * * * * * * * * * * * * * * * * * * * * * * * * * * * * * * //

dimensions      [0 1 -1 0 0 0 0];

internalField   nonuniform List<vector> 
2625
(
(0.352844 -0.00510993 -1.40602e-21)
(0.399769 -0.00556398 -2.74874e-21)
(0.446576 -0.00588803 -2.48418e-22)
(0.501169 -0.00666257 -9.13193e-22)
(0.272937 -0.0131308 6.39109e-21)
(0.313602 -0.0142039 -7.79218e-22)
(0.35584 -0.0153137 2.68691e-21)
(0.403018 -0.0166655 7.85778e-21)
(0.449933 -0.0176336 -1.67655e-22)
(0.504856 -0.0199296 -4.37126e-22)
(0.277931 -0.0218124 5.30323e-21)
(0.319105 -0.0235826 5.36269e-21)
(0.361802 -0.0254139 -5.76454e-21)
(0.409481 -0.0276341 -6.39134e-21)
(0.456606 -0.0292358 1.92799e-21)
(0.512174 -0.0329756 6.2661e-21)
(0.285379 -0.0303776 -6.52336e-21)
(0.327303 -0.0328172 -4.81351e-21)
(0.370675 -0.0353426 9.59745e-21)
(0.419083 -0.038383 1.52795e-21)
(0.466511 -0.0406014 -4.90712e-21)
(0.523012 -0.0456588 -5.22673e-21)
(0.29523 -0.0387808 1.7427e-21)
(0.338129 -0.041852 -5.15829e-21)
(0.382373 -0.045034 4.50269e-21)
(0.431718 -0.0488286 -1.09608e-20)
(0.479525 -0.0516406 -3.74021e-21)
(0.537204 -0.0578453 2.78871e-21)
(0.307414 -0.0469776 -3.21992e-20)
(0.351494 -0.0506329 -4.57611e-21)
(0.396788 -0.0544245 6.60788e-21)
(0.447246 -0.0588915 7.14208e-21)
(0.495486 -0.0622685 1.23754e-20)
(0.554539 -0.0694125 -2.42654e-21)
(0.321849 -0.054925 4.17041e-20)
(0.367292 -0.059108 3.46299e-20)
(0.413784 -0.0634538 -2.54281e-20)
(0.465498 -0.0684974 1.27272e-20)
(0.514203 -0.072406 -7.69972e-21)
(0.574761 -0.0802509 -1.31246e-21)
(0.338437 -0.0625816 -1.88249e-20)
(0.385396 -0.0672283 -1.39461e-20)
(0.433206 -0.0720653 2.63751e-20)
(0.486278 -0.0775783 -5.16811e-21)
(0.535455 -0.0819807 -1.88636e-20)
(0.597582 -0.0902663 1.2628e-20)
(0.357067 -0.069908 -2.24607e-20)
(0.405665 -0.0749474 -2.87863e-20)
(0.454881 -0.0802066 -3.07132e-20)
(0.509368 -0.086073 3.38926e-21)
(0.558995 -0.0909276 8.76717e-21)
(0.622683 -0.0993812 -1.85541e-20)
(0.427944 -0.0822228 4.416e-20)
(0.478616 -0.08783 1.21667e-20)
(0.534531 -0.0939277 -2.40323e-21)
(0.584559 -0.0991899 3.05842e-20)
(0.649723 -0.107536 4.99482e-21)
(0.452064 -0.0890154 -6.95994e-20)
(0.50421 -0.0948929 -6.89148e-22)
(0.561519 -0.101097 -1.34939e-20)
(0.611869 -0.106719 3.28469e-21)
(0.678353 -0.114687 -3.01989e-21)
(0.47785 -0.0952901 6.30753e-20)
(0.531446 -0.101358 1.01882e-20)
(0.590068 -0.107543 1.58454e-20)
(0.640639 -0.113476 -2.97075e-20)
(0.708215 -0.120811 1.4907e-20)
(0.505114 -0.101016 -7.95825e-21)
(0.560104 -0.107194 -7.76741e-21)
(0.619915 -0.113238 -1.57097e-20)
(0.670577 -0.11943 2.37461e-20)
(0.738956 -0.1259 -2.44066e-20)
(0.533667 -0.106167 6.12885e-22)
(0.589958 -0.112374 -3.83722e-21)
(0.65079 -0.118162 3.80479e-20)
(0.701394 -0.12456 -6.60161e-21)
(0.770232 -0.12996 2.5302e-20)
(0.563314 -0.110721 3.60289e-22)
(0.62078 -0.116879 2.58813e-20)
(0.682429 -0.122303 -5.19246e-20)
(0.732806 -0.128852 3.53227e-20)
(0.801715 -0.133013 -2.18274e-20)
(0.593861 -0.114661 -4.52177e-20)
(0.652343 -0.120695 -2.2662e-20)
(0.71457 -0.125659 6.90057e-20)
(0.764537 -0.132304 -4.92514e-20)
(0.833099 -0.135094 -2.67676e-21)
(0.625111 -0.117974 2.52863e-20)
(0.684425 -0.123814 8.96947e-21)
(0.746963 -0.128233 -4.57287e-20)
(0.796324 -0.134921 -3.50727e-21)
(0.8641 -0.136247 2.65488e-20)
(0.656873 -0.120653 -2.57346e-21)
(0.716808 -0.126234 -3.47665e-20)
(0.779368 -0.130039 -1.36328e-20)
(0.827921 -0.136716 -1.25126e-20)
(0.894466 -0.136524 -3.89557e-21)
(0.688957 -0.122694 2.70576e-20)
(0.749282 -0.127958 -1.25104e-20)
(0.811561 -0.131096 5.2988e-20)
(0.859097 -0.13771 2.58391e-20)
(0.923975 -0.135987 -2.11253e-20)
(0.721181 -0.124101 -5.68963e-20)
(0.781649 -0.128996 3.30548e-20)
(0.843331 -0.13143 -2.47764e-20)
(0.889643 -0.137934 -5.35949e-20)
(0.952434 -0.1347 3.49926e-20)
(0.753368 -0.124879 3.57023e-20)
(0.813719 -0.129362 2.08924e-20)
(0.874488 -0.131072 -2.82607e-20)
(0.919374 -0.137422 5.86532e-20)
(0.979686 -0.132732 -3.26516e-20)
(0.785351 -0.125039 2.63434e-21)
(0.845317 -0.129077 -2.45529e-20)
(0.904859 -0.130057 7.38703e-21)
(0.948124 -0.136217 2.43279e-20)
(1.0056 -0.130153 -6.77961e-22)
(0.876281 -0.128166 2.34621e-20)
(0.934291 -0.128428 -3.65324e-20)
(0.975753 -0.134366 -9.05992e-21)
(1.03009 -0.127032 -9.40825e-21)
(0.906464 -0.126657 -3.26715e-20)
(0.962652 -0.126226 3.08188e-20)
(1.00214 -0.131919 -2.52011e-20)
(1.05307 -0.12344 2.55046e-20)
(0.935735 -0.124583 -7.73702e-21)
(0.98983 -0.1235 4.43909e-20)
(1.0272 -0.128931 5.59494e-20)
(1.07451 -0.119444 -1.68201e-21)
(0.96398 -0.12198 7.45849e-20)
(1.01573 -0.120297 -4.21381e-20)
(1.05087 -0.125459 -4.37557e-21)
(1.09439 -0.115107 -2.27201e-20)
(0.991099 -0.118888 -8.28911e-21)
(1.04029 -0.116666 4.73609e-22)
(1.07308 -0.121558 -2.61506e-20)
(1.11272 -0.110492 -1.5341e-21)
(1.01701 -0.115348 -2.09064e-20)
(1.06345 -0.112658 -2.20589e-21)
(1.09382 -0.117286 -4.25917e-20)
(1.1295 -0.105654 3.91736e-20)
(1.04165 -0.111402 6.41066e-20)
(1.08518 -0.108323 6.10401e-20)
(1.11307 -0.112699 -2.42184e-20)
(1.14479 -0.100645 -8.70207e-20)
(1.06496 -0.107094 -1.56749e-19)
(1.10545 -0.103709 -9.08387e-20)
(1.13086 -0.107849 2.65588e-20)
(1.15863 -0.0955141 8.63646e-20)
(1.12427 -0.0988655 1.00268e-20)
(1.1472 -0.102788 6.68962e-20)
(1.17107 -0.0903038 -1.08576e-20)
(1.14165 -0.0938374 1.0687e-19)
(1.16214 -0.0975605 5.01356e-21)
(1.18217 -0.0850535 -3.51211e-20)
(1.15762 -0.0886691 -6.12804e-20)
(1.17573 -0.0922096 -8.17504e-20)
(1.19201 -0.0797994 4.81819e-20)
(1.1722 -0.0834021 2.2565e-20)
(1.18802 -0.0867713 -1.1926e-20)
(1.20066 -0.0745757 -1.0698e-19)
(1.18546 -0.0780751 8.28624e-21)
(1.19908 -0.0812761 -5.09048e-20)
(1.20816 -0.0694177 9.84182e-20)
(1.19743 -0.0727237 -1.13971e-20)
(1.20898 -0.0757488 1.02519e-19)
(1.21459 -0.0643651 -4.49882e-20)
(1.2178 -0.0702069 5.64666e-20)
(1.22 -0.059458 7.50043e-20)
(1.2256 -0.0646559 -3.73153e-20)
(1.22441 -0.0547313 -5.90481e-20)
(1.23243 -0.0590843 1.19045e-20)
(1.22784 -0.0502849 -1.12453e-20)
(1.23836 -0.0534882 -9.89418e-21)
(1.23048 -0.0465108 1.04499e-20)
(1.23281 -0.0439989 -8.1786e-21)
(1.23604 -0.0411562 1.01132e-20)
(1.23899 -0.0379918 7.06815e-20)
(1.24149 -0.0345826 9.52706e-21)
(0.53258 -0.00635699 3.31589e-22)
(0.542399 -0.0062702 -1.71827e-22)
(0.552173 -0.00619544 -1.07417e-24)
(0.562013 -0.00612775 2.45258e-23)
(0.571902 -0.00606504 -1.86753e-23)
(0.581833 -0.00600614 -7.56889e-23)
(0.591812 -0.0059499 5.87524e-23)
(0.601843 -0.00589524 1.22163e-22)
(0.611929 -0.00584121 -8.67624e-23)
(0.622067 -0.00578697 1.36156e-23)
(0.632258 -0.00573177 -1.93978e-23)
(0.642497 -0.00567497 5.14414e-23)
(0.652781 -0.00561595 -3.70027e-23)
(0.663103 -0.00555419 6.54509e-23)
(0.673459 -0.00548922 -7.77676e-23)
(0.683839 -0.0054206 1.68263e-23)
(0.694235 -0.00534797 3.31543e-23)
(0.704637 -0.00527099 -2.93704e-23)
(0.715034 -0.0051894 2.79944e-23)
(0.725415 -0.00510295 -3.77093e-23)
(0.735766 -0.00501148 2.40153e-24)
(0.746073 -0.00491484 1.89123e-23)
(0.756323 -0.00481297 -2.4539e-23)
(0.7665 -0.00470585 1.48567e-23)
(0.776588 -0.00459349 -9.88133e-24)
(0.786572 -0.004476 5.00353e-24)
(0.796435 -0.00435351 8.05957e-25)
(0.806159 -0.00422624 -1.47333e-24)
(0.815729 -0.00409445 1.74598e-24)
(0.825127 -0.00395845 -3.25321e-24)
(0.834337 -0.00381864 -1.37763e-24)
(0.843342 -0.00367544 1.9285e-24)
(0.852126 -0.00352933 -5.06311e-24)
(0.860676 -0.00338086 -3.29165e-24)
(0.868976 -0.00323058 1.18523e-23)
(0.877014 -0.0030791 -2.54635e-25)
(0.884778 -0.00292707 -6.8772e-24)
(0.892257 -0.00277513 -3.97152e-24)
(0.899442 -0.00262394 6.75618e-24)
(0.906327 -0.00247418 -7.01133e-25)
(0.912905 -0.00232649 8.12453e-24)
(0.919173 -0.00218151 -1.67541e-23)
(0.925128 -0.00203985 1.61711e-23)
(0.536035 -0.0190198 1.92099e-22)
(0.545749 -0.0187621 -5.47696e-23)
(0.555419 -0.01854 5.83396e-26)
(0.565162 -0.0183386 3.71371e-22)
(0.574955 -0.0181517 2.29323e-22)
(0.584793 -0.0179761 -6.57092e-22)
(0.59468 -0.0178083 8.88995e-23)
(0.60462 -0.017645 8.64398e-22)
(0.614616 -0.0174835 -4.98138e-22)
(0.624666 -0.0173213 1.57636e-22)
(0.634768 -0.0171562 -1.43749e-22)
(0.64492 -0.0169861 3.96949e-23)
(0.655117 -0.0168094 8.43748e-23)
(0.665354 -0.0166245 -1.8255e-22)
(0.675624 -0.0164299 1.36294e-22)
(0.68592 -0.0162243 2.64591e-23)
(0.696232 -0.0160067 -3.95406e-23)
(0.706551 -0.015776 -1.53558e-22)
(0.716866 -0.0155315 1.94685e-22)
(0.727165 -0.0152725 -1.03641e-22)
(0.737435 -0.0149984 7.32384e-23)
(0.747663 -0.0147088 -5.08599e-23)
(0.757835 -0.0144035 1.95988e-23)
(0.767935 -0.0140825 -1.65506e-23)
(0.777948 -0.0137459 1.07401e-23)
(0.787857 -0.0133938 -1.09861e-24)
(0.797648 -0.0130268 1.94579e-24)
(0.807302 -0.0126455 1.37157e-24)
(0.816802 -0.0122506 -4.76994e-25)
(0.826133 -0.0118431 -2.076e-24)
(0.835278 -0.0114243 4.10701e-24)
(0.844221 -0.0109952 -9.44418e-24)
(0.852945 -0.0105575 3.28174e-24)
(0.861436 -0.0101128 4.22159e-24)
(0.869681 -0.0096626 8.81063e-25)
(0.877665 -0.00920888 -4.48856e-24)
(0.885378 -0.0087535 7.96801e-24)
(0.892809 -0.00829842 1.2122e-23)
(0.899949 -0.00784562 6.50675e-24)
(0.906791 -0.00739711 9.06158e-24)
(0.913328 -0.00695484 -1.16219e-23)
(0.919558 -0.0065207 -7.32057e-24)
(0.925478 -0.00609652 2.16092e-23)
(0.542893 -0.0314863 2.94747e-22)
(0.552401 -0.0310668 8.18656e-22)
(0.561865 -0.0307052 -9.00781e-22)
(0.571413 -0.0303765 5.59605e-22)
(0.581018 -0.030071 -5.63155e-22)
(0.59067 -0.0297835 -8.79171e-23)
(0.600375 -0.0295085 2.24042e-23)
(0.610136 -0.0292406 4.3239e-22)
(0.619954 -0.0289754 -1.10778e-22)
(0.629828 -0.0287087 9.82893e-23)
(0.639756 -0.028437 -1.88941e-22)
(0.649735 -0.028157 9.72057e-23)
(0.65976 -0.0278658 -1.68136e-22)
(0.669826 -0.0275609 -1.08966e-22)
(0.679927 -0.0272399 2.91058e-22)
(0.690054 -0.0269006 4.22165e-23)
(0.7002 -0.0265413 -2.37982e-22)
(0.710354 -0.0261604 2.63834e-22)
(0.720505 -0.0257564 -2.90639e-22)
(0.730642 -0.0253283 1.1952e-22)
(0.740753 -0.0248751 9.54232e-23)
(0.750823 -0.0243963 -8.59866e-23)
(0.76084 -0.0238913 2.00725e-23)
(0.770787 -0.0233602 1.26016e-23)
(0.78065 -0.0228031 -2.33068e-23)
(0.790413 -0.0222203 8.47059e-24)
(0.800059 -0.0216127 2.67916e-25)
(0.809573 -0.0209813 -7.13298e-25)
(0.818937 -0.0203273 9.13164e-26)
(0.828135 -0.0196524 -8.69092e-24)
(0.837151 -0.0189584 7.65275e-24)
(0.845969 -0.0182476 9.85822e-24)
(0.854573 -0.0175222 1.73864e-23)
(0.862949 -0.016785 -4.40592e-23)
(0.871083 -0.0160388 6.21022e-24)
(0.878962 -0.0152866 3.57176e-24)
(0.886574 -0.0145315 1.23151e-23)
(0.893909 -0.0137769 8.76343e-24)
(0.900958 -0.0130259 -4.11286e-23)
(0.907714 -0.012282 2.44736e-23)
(0.914171 -0.0115483 -1.27937e-23)
(0.920325 -0.010828 -1.34285e-23)
(0.926175 -0.0101242 9.46013e-24)
(0.55305 -0.0436297 -9.74812e-22)
(0.562255 -0.0430634 1.36294e-21)
(0.571413 -0.0425751 -3.54059e-22)
(0.580675 -0.0421295 6.44942e-22)
(0.590002 -0.0417144 -1.66105e-21)
(0.599381 -0.041323 8.13624e-22)
(0.608816 -0.040948 6.54229e-22)
(0.618312 -0.0405821 3.91631e-22)
(0.627867 -0.0402192 -8.57192e-22)
(0.63748 -0.0398538 -5.12178e-22)
(0.64715 -0.0394811 5.69543e-22)
(0.656873 -0.0390966 3.06849e-22)
(0.666644 -0.0386963 -6.24397e-22)
(0.676458 -0.0382767 2.75488e-22)
(0.686308 -0.0378346 -1.21434e-22)
(0.696187 -0.0373671 2.20279e-23)
(0.706087 -0.0368716 2.39053e-23)
(0.715996 -0.0363459 2.52614e-22)
(0.725905 -0.0357881 -2.04338e-22)
(0.735803 -0.0351966 2.29062e-22)
(0.745677 -0.0345703 -2.0472e-22)
(0.755514 -0.0339081 2.31125e-23)
(0.765301 -0.0332096 -1.18962e-23)
(0.775022 -0.0324746 -1.18176e-23)
(0.784663 -0.0317033 -1.70799e-23)
(0.794208 -0.0308962 -1.15507e-23)
(0.803642 -0.0300545 7.79652e-24)
(0.812947 -0.0291795 -2.10597e-23)
(0.822109 -0.028273 8.56746e-24)
(0.83111 -0.0273372 1.34821e-23)
(0.839935 -0.0263747 -1.72062e-23)
(0.848568 -0.0253885 -1.54635e-23)
(0.856994 -0.024382 5.52424e-23)
(0.865199 -0.0233588 -2.66064e-23)
(0.873168 -0.0223228 -1.11688e-23)
(0.88089 -0.0212783 1.81853e-23)
(0.888352 -0.0202296 -6.09424e-23)
(0.895545 -0.0191812 4.48435e-23)
(0.902459 -0.0181378 1.77413e-23)
(0.909088 -0.0171038 -2.70694e-23)
(0.915426 -0.016084 2.57355e-23)
(0.921468 -0.0150826 -6.01829e-23)
(0.927213 -0.0141039 -2.62233e-24)
(0.566354 -0.05533 2.26197e-22)
(0.575164 -0.054637 5.06065e-22)
(0.583926 -0.0540394 1.37868e-21)
(0.592814 -0.0534911 -1.75364e-21)
(0.601779 -0.0529786 7.82632e-22)
(0.610801 -0.0524942 -1.80676e-22)
(0.619884 -0.0520289 1.03776e-22)
(0.629032 -0.0515739 -3.55004e-22)
(0.638244 -0.0511218 2.68834e-22)
(0.647517 -0.0506656 5.17987e-22)
(0.65685 -0.0501995 -2.48714e-22)
(0.666238 -0.0497179 -4.81809e-23)
(0.675677 -0.0492159 -9.16907e-22)
(0.685161 -0.048689 2.43196e-22)
(0.694684 -0.0481331 3.63343e-22)
(0.704238 -0.0475446 9.55272e-23)
(0.713815 -0.0469204 -1.92869e-22)
(0.723404 -0.0462575 -2.03436e-22)
(0.732997 -0.0455536 2.59254e-22)
(0.742582 -0.0448068 1.39721e-22)
(0.752147 -0.0440153 -2.80202e-22)
(0.761678 -0.043178 2.45865e-22)
(0.771164 -0.0422943 5.39739e-23)
(0.780589 -0.0413639 -1.56305e-22)
(0.789939 -0.0403871 7.78355e-23)
(0.799198 -0.0393646 6.46022e-24)
(0.808353 -0.0382976 -2.83389e-23)
(0.817386 -0.0371879 -4.03541e-23)
(0.826282 -0.0360379 1.29775e-23)
(0.835025 -0.0348502 -1.4237e-24)
(0.843599 -0.0336282 -8.05637e-25)
(0.85199 -0.0323758 -3.88874e-23)
(0.860183 -0.031097 6.93667e-23)
(0.868162 -0.0297966 -2.3312e-23)
(0.875916 -0.0284795 -4.88507e-23)
(0.883431 -0.0271512 -2.19429e-23)
(0.890697 -0.0258171 1.36356e-22)
(0.897703 -0.0244831 -7.95447e-23)
(0.90444 -0.023155 -3.75638e-23)
(0.910901 -0.0218387 1.2292e-22)
(0.917081 -0.0205399 -5.28206e-23)
(0.922976 -0.0192642 1.57934e-24)
(0.928583 -0.0180171 -2.50701e-23)
(0.582606 -0.0664762 -1.43851e-22)
(0.59094 -0.0656809 9.12811e-22)
(0.599221 -0.064995 -3.24349e-21)
(0.607656 -0.0643615 1.85214e-22)
(0.616181 -0.0637667 -2.08608e-22)
(0.624768 -0.0632028 -7.01839e-22)
(0.633424 -0.0626595 1.56334e-21)
(0.642149 -0.0621267 -1.15183e-21)
(0.650943 -0.0615957 8.27151e-22)
(0.659802 -0.0610588 -6.50976e-22)
(0.668724 -0.0605088 6.27284e-22)
(0.677704 -0.0599394 1.52471e-22)
(0.686738 -0.0593448 2.69689e-22)
(0.69582 -0.0587196 -5.8295e-22)
(0.704943 -0.0580591 1.66046e-22)
(0.714101 -0.057359 3.08786e-23)
(0.723284 -0.0566153 -1.51542e-23)
(0.732484 -0.0558248 2.06298e-22)
(0.741691 -0.0549846 -4.38648e-22)
(0.750894 -0.0540921 1.7916e-22)
(0.76008 -0.0531456 6.79585e-24)
(0.769239 -0.0521436 1.40495e-22)
(0.778357 -0.0510852 6.40474e-23)
(0.78742 -0.0499701 -1.15463e-22)
(0.796415 -0.0487985 2.15197e-23)
(0.805326 -0.0475715 -1.82426e-23)
(0.814139 -0.0462904 -9.51897e-24)
(0.822839 -0.0449573 1.90473e-23)
(0.83141 -0.043575 -3.22769e-24)
(0.839837 -0.0421468 -2.38734e-24)
(0.848105 -0.0406766 5.08964e-24)
(0.856199 -0.0391691 1.9885e-23)
(0.864105 -0.0376293 1.06189e-23)
(0.871809 -0.0360627 -4.8686e-23)
(0.879299 -0.0344755 1.86508e-23)
(0.886561 -0.0328741 2.06644e-24)
(0.893585 -0.0312651 -4.24008e-23)
(0.900361 -0.0296557 2.20224e-23)
(0.906881 -0.0280527 -5.68989e-23)
(0.913137 -0.0264634 1.23291e-22)
(0.919124 -0.0248948 -3.469e-23)
(0.924837 -0.0233536 9.9862e-24)
(0.930275 -0.0218464 -2.64857e-23)
(0.601572 -0.0769678 8.86733e-22)
(0.609355 -0.076098 -9.96635e-22)
(0.617083 -0.0753481 1.66955e-21)
(0.624993 -0.0746496 3.32966e-21)
(0.633007 -0.0739901 -9.19766e-22)
(0.641091 -0.0733626 -1.65699e-21)
(0.649249 -0.0727556 -1.97718e-21)
(0.657484 -0.0721582 2.26579e-21)
(0.665792 -0.0715607 1.31275e-21)
(0.674169 -0.0709547 -2.7155e-21)
(0.682613 -0.0703322 -4.79912e-22)
(0.691119 -0.069686 1.02985e-21)
(0.699682 -0.0690096 3.44611e-22)
(0.708296 -0.068297 -2.13884e-22)
(0.716954 -0.0675427 4.09127e-25)
(0.725651 -0.0667418 2.57363e-22)
(0.734376 -0.0658898 -7.00695e-22)
(0.743122 -0.0649829 8.97642e-22)
(0.751879 -0.0640177 -2.9383e-22)
(0.760636 -0.0629913 4.2961e-23)
(0.769382 -0.0619017 2.92257e-22)
(0.778106 -0.060747 -3.1861e-22)
(0.786795 -0.0595262 -1.96887e-22)
(0.795436 -0.058239 2.09421e-22)
(0.804016 -0.0568856 2.11032e-22)
(0.81252 -0.055467 1.21536e-23)
(0.820935 -0.0539849 -8.45419e-23)
(0.829245 -0.0524417 3.02078e-23)
(0.837436 -0.0508405 -9.64479e-24)
(0.845494 -0.0491851 -3.16793e-23)
(0.853404 -0.0474802 -1.11505e-23)
(0.861151 -0.045731 4.69329e-24)
(0.868722 -0.0439434 5.70907e-24)
(0.876103 -0.0421239 1.90245e-23)
(0.883283 -0.0402794 3.10009e-23)
(0.890248 -0.0384176 -4.51066e-23)
(0.89699 -0.0365462 -2.53925e-23)
(0.903497 -0.0346734 3.7729e-23)
(0.909761 -0.0328073 -2.94415e-23)
(0.915776 -0.0309564 -9.96178e-24)
(0.921536 -0.0291287 6.91703e-24)
(0.927036 -0.0273323 2.83249e-23)
(0.932274 -0.0255749 -3.72873e-23)
(0.62298 -0.0867171 -1.47727e-21)
(0.630152 -0.085803 1.58275e-21)
(0.637262 -0.0850158 -3.34852e-21)
(0.644586 -0.0842745 4.34769e-21)
(0.652028 -0.0835701 -1.06619e-21)
(0.659548 -0.0828965 -2.15453e-21)
(0.667149 -0.082242 3.01081e-21)
(0.674832 -0.0815949 8.81976e-24)
(0.682594 -0.0809449 -2.1122e-21)
(0.690431 -0.0802831 1.95288e-22)
(0.698337 -0.0796008 -6.83075e-22)
(0.70631 -0.0788903 1.17257e-21)
(0.714343 -0.0781445 -7.31497e-22)
(0.72243 -0.0773567 1.7549e-21)
(0.730566 -0.0765208 -2.52111e-21)
(0.738742 -0.0756315 1.41591e-21)
(0.746952 -0.0746837 -8.37765e-22)
(0.755187 -0.0736731 5.1666e-23)
(0.763436 -0.0725959 7.2113e-22)
(0.771691 -0.0714489 1.8868e-23)
(0.779942 -0.0702295 -1.73281e-23)
(0.788175 -0.0689359 -1.63136e-22)
(0.796381 -0.0675669 -2.87142e-22)
(0.804545 -0.0661219 1.21675e-22)
(0.812657 -0.0646011 1.77652e-22)
(0.820701 -0.0630058 -3.31953e-23)
(0.828665 -0.0613376 -6.80823e-23)
(0.836535 -0.0595993 6.28461e-23)
(0.844297 -0.0577944 -5.23161e-24)
(0.851937 -0.0559272 -4.18002e-23)
(0.85944 -0.0540028 -2.2843e-24)
(0.866795 -0.0520272 8.23734e-24)
(0.873986 -0.0500069 1.51226e-23)
(0.881002 -0.0479494 -1.47886e-23)
(0.88783 -0.0458625 5.3209e-23)
(0.894459 -0.0437548 -7.6495e-23)
(0.900879 -0.0416352 6.5744e-23)
(0.90708 -0.0395128 -6.43683e-24)
(0.913054 -0.0373971 3.36981e-23)
(0.918795 -0.0352974 -1.90954e-23)
(0.924296 -0.0332232 -3.50863e-23)
(0.929554 -0.0311835 9.31396e-23)
(0.934565 -0.029187 -9.75781e-23)
(0.646535 -0.0956502 -1.61626e-21)
(0.653045 -0.0947235 6.00172e-22)
(0.659486 -0.0939268 8.5684e-22)
(0.666173 -0.0931665 -9.05864e-22)
(0.672993 -0.0924382 3.47871e-21)
(0.679897 -0.0917379 -1.5249e-21)
(0.686889 -0.0910534 -1.50462e-21)
(0.69397 -0.0903728 -4.00578e-22)
(0.701135 -0.0896856 1.67848e-21)
(0.708379 -0.0889825 -2.25277e-21)
(0.715698 -0.0882546 2.59279e-21)
(0.723086 -0.0874935 -7.17192e-22)
(0.730538 -0.0866918 7.44642e-22)
(0.738048 -0.0858422 -1.72318e-21)
(0.74561 -0.0849383 9.38095e-22)
(0.753217 -0.0839741 -1.62316e-23)
(0.760861 -0.0829442 2.62013e-24)
(0.768534 -0.0818439 -6.97474e-22)
(0.776227 -0.080669 1.01525e-22)
(0.783931 -0.0794158 -2.9017e-22)
(0.791636 -0.0780817 3.21461e-22)
(0.79933 -0.0766643 -3.61232e-22)
(0.807004 -0.0751624 5.72556e-22)
(0.814645 -0.0735753 -1.90641e-23)
(0.822241 -0.0719033 -5.97447e-23)
(0.829779 -0.0701474 1.09206e-22)
(0.837247 -0.0683097 -1.41578e-22)
(0.844632 -0.066393 -7.96283e-23)
(0.85192 -0.0644012 1.04295e-22)
(0.859099 -0.0623389 -1.03281e-24)
(0.866154 -0.0602119 -1.76645e-23)
(0.873074 -0.0580267 -6.14862e-24)
(0.879846 -0.0557905 3.34899e-24)
(0.886457 -0.0535116 5.67482e-23)
(0.892897 -0.0511988 -8.56994e-23)
(0.899153 -0.0488613 5.33927e-24)
(0.905217 -0.0465092 9.45926e-24)
(0.91108 -0.0441526 7.38244e-25)
(0.916733 -0.0418021 5.46219e-24)
(0.922169 -0.0394682 2.25114e-23)
(0.927383 -0.0371612 9.96069e-23)
(0.932372 -0.0348914 -1.29346e-22)
(0.937131 -0.0326686 -9.41337e-23)
(0.671921 -0.103708 -4.23961e-21)
(0.677732 -0.102801 2.15207e-21)
(0.683465 -0.102023 -2.68935e-22)
(0.689475 -0.101268 -1.03391e-22)
(0.69563 -0.100538 -3.36682e-22)
(0.701878 -0.099831 1.09712e-22)
(0.70822 -0.0991351 1.14183e-22)
(0.714656 -0.0984383 -4.12443e-22)
(0.721182 -0.0977302 1.87547e-21)
(0.727792 -0.0970014 -2.44019e-21)
(0.734481 -0.0962428 2.21566e-21)
(0.741242 -0.0954459 -1.77347e-21)
(0.748072 -0.0946027 2.12171e-21)
(0.754963 -0.0937058 -7.38779e-22)
(0.761909 -0.0927483 -6.1706e-23)
(0.768904 -0.0917238 -1.23749e-21)
(0.77594 -0.0906267 7.78015e-22)
(0.78301 -0.0894517 -4.84612e-22)
(0.790105 -0.0881942 1.22293e-21)
(0.797216 -0.0868505 -7.40656e-22)
(0.804334 -0.0854175 2.5479e-22)
(0.811448 -0.0838926 -2.23136e-22)
(0.818549 -0.0822744 -1.93485e-23)
(0.825625 -0.0805621 8.09364e-22)
(0.832665 -0.078756 -6.23132e-22)
(0.839657 -0.0768571 5.05733e-22)
(0.84659 -0.0748675 -2.6415e-22)
(0.853451 -0.0727903 6.00521e-23)
(0.860228 -0.0706296 -1.34249e-22)
(0.866908 -0.0683905 5.89437e-23)
(0.873479 -0.0660791 3.04291e-23)
(0.879929 -0.0637025 -1.0149e-23)
(0.886246 -0.0612686 4.67955e-25)
(0.892419 -0.0587863 -2.52313e-23)
(0.898437 -0.0562651 7.36796e-23)
(0.90429 -0.0537154 -1.55012e-23)
(0.909967 -0.0511479 -3.12979e-23)
(0.915461 -0.0485739 -2.50034e-24)
(0.920764 -0.0460048 -2.16895e-23)
(0.92587 -0.0434522 -6.1864e-23)
(0.930772 -0.0409275 -3.31172e-23)
(0.935466 -0.0384421 3.21868e-23)
(0.93995 -0.0360065 8.21838e-23)
(0.698811 -0.110848 -5.50888e-22)
(0.703898 -0.10999 -2.65612e-21)
(0.708895 -0.10926 3.1022e-22)
(0.714199 -0.108535 -1.09089e-21)
(0.719661 -0.107825 3.01207e-21)
(0.725221 -0.107132 -3.43001e-21)
(0.730881 -0.106444 1.72852e-21)
(0.736642 -0.105749 -6.98082e-22)
(0.742496 -0.105037 -6.17942e-22)
(0.748439 -0.104298 2.35853e-21)
(0.754464 -0.103525 3.15255e-22)
(0.760567 -0.102707 -2.2134e-21)
(0.76674 -0.101838 1.70848e-21)
(0.772978 -0.100909 -4.12884e-22)
(0.779276 -0.0999129 1.73262e-22)
(0.785625 -0.0988434 -7.78889e-22)
(0.79202 -0.0976945 -3.39342e-22)
(0.798453 -0.0964604 1.25713e-21)
(0.804916 -0.0951366 -1.06638e-21)
(0.8114 -0.0937187 2.51959e-22)
(0.817897 -0.0922034 -4.27079e-22)
(0.824398 -0.090588 8.09781e-22)
(0.830892 -0.088871 -3.97902e-22)
(0.83737 -0.0870513 -5.20494e-23)
(0.843821 -0.0851291 2.247e-22)
(0.850235 -0.0831056 -4.70295e-22)
(0.8566 -0.0809828 3.55646e-22)
(0.862905 -0.078764 -1.8922e-22)
(0.869138 -0.0764536 -1.52281e-23)
(0.875288 -0.0740568 2.40909e-22)
(0.881344 -0.0715803 -9.30741e-23)
(0.887294 -0.0690316 1.23108e-24)
(0.893127 -0.0664191 5.67783e-24)
(0.898833 -0.0637524 1.19494e-23)
(0.904401 -0.0610418 -2.53536e-23)
(0.909822 -0.0582984 -1.34254e-24)
(0.915087 -0.0555337 6.78682e-23)
(0.920188 -0.05276 -8.52455e-23)
(0.925116 -0.0499896 -4.68786e-23)
(0.929867 -0.047235 1.44864e-22)
(0.934434 -0.0445088 -5.5052e-23)
(0.938814 -0.041823 -4.51674e-23)
(0.943002 -0.0391896 -4.94804e-23)
(0.726872 -0.11704 1.24112e-21)
(0.731222 -0.116262 1.90616e-21)
(0.73547 -0.115605 -1.02627e-22)
(0.74005 -0.114935 5.71511e-21)
(0.7448 -0.114267 -1.01142e-20)
(0.749651 -0.113608 9.39748e-21)
(0.754608 -0.112947 -4.46904e-21)
(0.75967 -0.112272 -7.64452e-22)
(0.764831 -0.111573 1.12015e-21)
(0.770084 -0.110842 -1.50592e-23)
(0.775422 -0.11007 -3.46077e-22)
(0.780841 -0.109248 2.28662e-22)
(0.786334 -0.108368 2.60964e-22)
(0.791895 -0.107422 3.6489e-22)
(0.797519 -0.106403 -5.35068e-22)
(0.803198 -0.105304 -4.52436e-22)
(0.808926 -0.104119 6.55901e-22)
(0.814696 -0.102843 -4.46622e-22)
(0.820502 -0.101469 -9.0453e-23)
(0.826334 -0.0999935 4.07551e-22)
(0.832184 -0.0984132 -2.91845e-23)
(0.838045 -0.096725 -5.94328e-22)
(0.843908 -0.094927 4.10501e-23)
(0.849762 -0.0930183 5.88922e-22)
(0.855598 -0.0909988 -2.7894e-22)
(0.861407 -0.0888697 3.4104e-22)
(0.867178 -0.0866331 1.36142e-22)
(0.872901 -0.0842923 -1.94656e-22)
(0.878566 -0.0818519 1.27711e-23)
(0.884161 -0.0793175 -7.39991e-23)
(0.889676 -0.0766959 -8.58431e-23)
(0.895102 -0.0739951 1.51095e-24)
(0.900427 -0.071224 6.34268e-23)
(0.905642 -0.0683929 -6.08478e-24)
(0.910737 -0.0655125 -4.61065e-24)
(0.915705 -0.0625947 2.19895e-23)
(0.920535 -0.0596519 -3.30557e-23)
(0.92522 -0.0566971 3.78054e-23)
(0.929754 -0.0537435 -4.56197e-23)
(0.93413 -0.0508045 -1.34593e-23)
(0.938344 -0.0478936 2.49532e-24)
(0.94239 -0.0450238 -2.01024e-23)
(0.946266 -0.0422077 -3.66481e-24)
(0.755775 -0.122271 -3.77455e-21)
(0.759386 -0.1216 9.86639e-21)
(0.762881 -0.121042 -5.31702e-21)
(0.766732 -0.120449 6.15528e-22)
(0.77076 -0.119845 -1.14517e-21)
(0.774894 -0.11924 1.59668e-21)
(0.779136 -0.118625 -1.68244e-21)
(0.783488 -0.117987 7.68897e-21)
(0.787942 -0.117319 -9.07033e-21)
(0.79249 -0.116612 5.00935e-21)
(0.797128 -0.115857 -2.90481e-21)
(0.801848 -0.115046 7.05468e-22)
(0.806645 -0.114171 2.2934e-21)
(0.811513 -0.113224 -1.98593e-21)
(0.816446 -0.112198 1.08031e-21)
(0.821439 -0.111086 -6.82355e-22)
(0.826484 -0.109882 4.13491e-22)
(0.831574 -0.108578 -3.16525e-22)
(0.836705 -0.107171 -1.72764e-21)
(0.841867 -0.105656 3.2808e-22)
(0.847053 -0.104028 1.43613e-21)
(0.852256 -0.102285 5.55092e-23)
(0.857468 -0.100424 2.52196e-23)
(0.86268 -0.0984451 1.61112e-22)
(0.867883 -0.0963474 5.8099e-23)
(0.873068 -0.094132 4.8943e-22)
(0.878226 -0.0918013 -4.60026e-22)
(0.883349 -0.0893585 -9.93668e-23)
(0.888425 -0.0868084 1.10688e-22)
(0.893446 -0.0841567 -2.41582e-23)
(0.898402 -0.0814105 9.85384e-23)
(0.903284 -0.0785782 -1.54252e-22)
(0.908083 -0.0756692 9.17489e-23)
(0.912788 -0.072694 2.65271e-24)
(0.917393 -0.0696641 -3.22337e-24)
(0.921888 -0.0665919 -1.80365e-24)
(0.926266 -0.0634906 -3.14525e-24)
(0.930519 -0.0603739 1.05775e-23)
(0.934641 -0.0572558 -4.54577e-23)
(0.938627 -0.0541506 -1.20488e-23)
(0.942471 -0.0510724 4.65034e-23)
(0.946169 -0.0480354 2.36176e-23)
(0.949717 -0.0450529 9.66354e-24)
(0.785199 -0.126543 -6.55494e-21)
(0.78808 -0.126002 1.99054e-21)
(0.790831 -0.125566 7.112e-21)
(0.793956 -0.12507 -4.78935e-21)
(0.797265 -0.12455 -8.06562e-22)
(0.800679 -0.124019 5.09197e-21)
(0.804206 -0.123467 -1.03675e-21)
(0.807844 -0.122885 -1.77697e-21)
(0.811587 -0.122264 1.22503e-21)
(0.815426 -0.121597 -9.30694e-22)
(0.819357 -0.120875 -4.83012e-21)
(0.823373 -0.120091 3.00487e-21)
(0.827467 -0.119237 8.22348e-22)
(0.831635 -0.118305 -2.05995e-21)
(0.83587 -0.117288 1.78298e-21)
(0.840167 -0.116178 -4.70048e-22)
(0.84452 -0.11497 -9.4162e-22)
(0.848922 -0.113656 1.9887e-21)
(0.853368 -0.112233 -4.40753e-23)
(0.85785 -0.110694 -8.65485e-22)
(0.862362 -0.109036 -1.11285e-21)
(0.866896 -0.107256 4.8748e-22)
(0.871446 -0.105351 -1.06744e-21)
(0.876004 -0.10332 8.36007e-22)
(0.880562 -0.101163 -3.24265e-22)
(0.885112 -0.0988811 -3.47424e-22)
(0.889645 -0.096476 8.52213e-22)
(0.894154 -0.0939514 -9.59005e-23)
(0.89863 -0.0913119 -3.65666e-23)
(0.903064 -0.0885635 -9.89374e-23)
(0.907447 -0.0857136 -2.19237e-22)
(0.911773 -0.0827705 1.56397e-22)
(0.916031 -0.0797443 -7.24993e-23)
(0.920214 -0.0766457 1.09431e-22)
(0.924314 -0.0734868 -4.86962e-23)
(0.928324 -0.0702806 2.44811e-23)
(0.932236 -0.0670408 -1.08917e-24)
(0.936044 -0.0637818 8.9147e-24)
(0.939742 -0.0605183 -1.09391e-23)
(0.943324 -0.0572653 1.69778e-24)
(0.946786 -0.0540379 5.01223e-23)
(0.950124 -0.0508508 -6.5744e-23)
(0.953333 -0.0477183 -1.03431e-23)
(0.956412 -0.0446541 1.38231e-23)
(0.814836 -0.129869 -2.75542e-21)
(0.817006 -0.129479 -8.73413e-22)
(0.819031 -0.129184 5.2217e-22)
(0.821444 -0.128805 -4.46666e-21)
(0.824044 -0.128386 1.00943e-21)
(0.826749 -0.127946 8.5688e-21)
(0.829567 -0.127476 -4.95415e-21)
(0.832498 -0.126965 5.31934e-22)
(0.835534 -0.126407 1.76778e-21)
(0.838669 -0.125796 -5.55508e-23)
(0.841896 -0.125123 -4.78329e-21)
(0.845208 -0.124381 4.04616e-21)
(0.848602 -0.123563 -2.65943e-21)
(0.85207 -0.122661 -1.3122e-21)
(0.855607 -0.121668 -7.68911e-22)
(0.859209 -0.120576 4.1508e-21)
(0.862868 -0.11938 -3.55776e-21)
(0.86658 -0.118072 3.20422e-21)
(0.870339 -0.116649 -5.67784e-22)
(0.874139 -0.115103 -1.14499e-21)
(0.877973 -0.113432 2.05028e-21)
(0.881835 -0.111633 -2.07326e-21)
(0.885719 -0.109701 2.08917e-21)
(0.889619 -0.107637 8.19021e-22)
(0.893526 -0.10544 -1.34115e-21)
(0.897435 -0.103111 5.94078e-22)
(0.901338 -0.100651 -1.03595e-21)
(0.905227 -0.0980646 -2.17327e-22)
(0.909095 -0.0953561 1.04895e-21)
(0.912935 -0.0925315 -3.83437e-22)
(0.916738 -0.0895984 -1.60092e-22)
(0.920499 -0.0865655 4.07193e-22)
(0.924209 -0.0834428 -3.17185e-22)
(0.927861 -0.0802416 1.15566e-22)
(0.931448 -0.0769744 -1.14588e-22)
(0.934964 -0.0736546 4.14841e-23)
(0.938401 -0.0702964 1.59289e-23)
(0.941755 -0.0669148 -4.89828e-24)
(0.94502 -0.0635251 -9.40583e-24)
(0.94819 -0.0601431 1.20339e-23)
(0.95126 -0.0567846 -2.52786e-23)
(0.954228 -0.0534648 -1.07474e-23)
(0.95709 -0.0501991 5.99333e-23)
(0.959842 -0.0470016 -8.69605e-23)
(0.8444 -0.132276 7.00668e-21)
(0.845885 -0.132053 -7.17548e-21)
(0.847212 -0.131916 -3.37399e-21)
(0.848935 -0.131669 -3.87699e-21)
(0.850845 -0.131368 6.04138e-21)
(0.852859 -0.131035 2.24868e-21)
(0.854983 -0.130661 -6.41643e-21)
(0.857221 -0.130237 3.49655e-22)
(0.859564 -0.129758 1.07003e-20)
(0.862005 -0.129217 -1.08459e-21)
(0.864539 -0.128608 -2.16733e-21)
(0.867159 -0.127923 -4.97248e-21)
(0.86986 -0.127155 6.87643e-22)
(0.872636 -0.126297 4.93532e-21)
(0.875483 -0.125343 -2.67223e-21)
(0.878396 -0.124284 7.72493e-22)
(0.881368 -0.123115 -5.43824e-22)
(0.884395 -0.121829 1.31737e-21)
(0.887472 -0.120421 -1.72301e-21)
(0.890594 -0.118886 -1.59648e-21)
(0.893754 -0.117219 3.06071e-21)
(0.896947 -0.115416 -1.70097e-21)
(0.900168 -0.113477 1.54785e-21)
(0.903411 -0.111397 -4.09751e-22)
(0.90667 -0.109178 3.74711e-23)
(0.909938 -0.10682 -9.43913e-22)
(0.913209 -0.104325 4.11576e-22)
(0.916478 -0.101697 -3.0231e-22)
(0.919738 -0.0989391 6.24428e-23)
(0.922982 -0.0960586 2.3153e-22)
(0.926204 -0.0930627 -2.7918e-22)
(0.929397 -0.0899604 -4.65834e-22)
(0.932555 -0.0867618 3.13605e-22)
(0.935672 -0.0834787 7.19936e-23)
(0.938743 -0.0801236 -4.12733e-23)
(0.94176 -0.0767104 1.00839e-23)
(0.944718 -0.0732538 -7.91723e-24)
(0.947612 -0.0697693 -6.25171e-23)