/*--------------------------------*- C++ -*----------------------------------*\
  =========                 |
  \\      /  F ield         | OpenFOAM: The Open Source CFD Toolbox
   \\    /   O peration     | Website:  https://openfoam.org
    \\  /    A nd           | Version:  7
     \\/     M anipulation  |
\*---------------------------------------------------------------------------*/
FoamFile
{
    version     2.0;
    format      ascii;
    class       volScalarField;
    location    "5";
    object      p;
}
// * * * * * * * * * * * * * * * * * * * * * * * * * * * * * * * * * * * * * //

dimensions      [0 2 -2 0 0 0 0];

internalField   nonuniform List<scalar> 
24200
(
-0.430553
-0.438236
-0.444862
-0.450094
-0.453584
-0.454987
-0.453962
-0.450192
-0.443392
-0.433321
-0.419802
-0.402728
-0.382105
-0.358051
-0.3308
-0.300729
-0.268348
-0.234294
-0.1993
-0.164163
-0.129693
-0.096667
-0.0657854
-0.0376065
-0.0126623
0.00903615
-0.430932
-0.438667
-0.445354
-0.450656
-0.454225
-0.455716
-0.454789
-0.451128
-0.444446
-0.434503
-0.421116
-0.404181
-0.383698
-0.359778
-0.332651
-0.302687
-0.270394
-0.236402
-0.201444
-0.166315
-0.13183
-0.0987666
-0.0678324
-0.0395738
-0.0145641
0.00733822
-0.431673
-0.439509
-0.446313
-0.451748
-0.45547
-0.457132
-0.456395
-0.452943
-0.446489
-0.43679
-0.423659
-0.406986
-0.386775
-0.363113
-0.336224
-0.306468
-0.274343
-0.240472
-0.205585
-0.170476
-0.135966
-0.102832
-0.0718012
-0.0433944
-0.0182693
0.0039921
-0.432739
-0.440718
-0.447688
-0.453314
-0.457251
-0.459154
-0.458686
-0.455529
-0.449396
-0.44004
-0.42727
-0.410973
-0.391138
-0.367838
-0.341284
-0.311821
-0.279934
-0.246235
-0.211452
-0.176383
-0.141844
-0.108618
-0.0774635
-0.0488685
-0.0235972
-0.000898055
-0.434078
-0.442234
-0.449408
-0.455268
-0.459469
-0.461669
-0.46153
-0.458736
-0.452996
-0.444061
-0.431733
-0.415901
-0.396517
-0.373659
-0.347515
-0.318413
-0.286821
-0.253341
-0.218697
-0.183684
-0.149125
-0.115808
-0.0845337
-0.055727
-0.0303076
-0.00716963
-0.44398
-0.451384
-0.457507
-0.462007
-0.46454
-0.464771
-0.462383
-0.457083
-0.448619
-0.436785
-0.421467
-0.402598
-0.380237
-0.354556
-0.325865
-0.294612
-0.261391
-0.22692
-0.191979
-0.157432
-0.124054
-0.0926776
-0.0636722
-0.0381243
-0.014606
-0.44587
-0.453517
-0.459917
-0.46473
-0.467615
-0.468235
-0.466274
-0.461438
-0.453468
-0.442166
-0.427382
-0.409055
-0.387222
-0.362034
-0.333786
-0.302904
-0.269971
-0.235695
-0.200881
-0.166382
-0.132981
-0.10155
-0.0723923
-0.0467537
-0.0229512
-0.447811
-0.455699
-0.462375
-0.467501
-0.470735
-0.471745
-0.470211
-0.465838
-0.458364
-0.447587
-0.433347
-0.415567
-0.39427
-0.369585
-0.341796
-0.311292
-0.278682
-0.244648
-0.209996
-0.175598
-0.142234
-0.110814
-0.0815774
-0.0559012
-0.0319306
-0.449709
-0.457823
-0.46476
-0.470181
-0.473749
-0.475128
-0.474001
-0.470073
-0.463081
-0.452806
-0.439091
-0.421843
-0.401072
-0.376874
-0.349538
-0.319444
-0.287169
-0.253411
-0.218971
-0.184736
-0.151484
-0.120155
-0.0909349
-0.065287
-0.0412721
-0.451471
-0.459785
-0.466955
-0.472643
-0.476511
-0.478227
-0.477474
-0.473954
-0.467406
-0.457602
-0.444378
-0.427627
-0.407346
-0.38363
-0.356734
-0.327044
-0.295122
-0.261673
-0.2275
-0.1935
-0.160445
-0.129296
-0.100202
-0.0746594
-0.0507233
-0.453012
-0.461491
-0.468856
-0.47477
-0.478897
-0.480907
-0.480481
-0.477326
-0.471171
-0.461791
-0.449009
-0.432714
-0.412886
-0.389615
-0.363139
-0.333845
-0.30229
-0.269184
-0.235334
-0.201646
-0.168883
-0.13801
-0.109158
-0.0838037
-0.0600641
-0.454255
-0.462857
-0.470371
-0.476465
-0.480802
-0.483054
-0.482905
-0.480058
-0.474245
-0.465233
-0.45284
-0.436947
-0.417524
-0.394656
-0.368573
-0.339662
-0.308483
-0.275754
-0.242286
-0.208988
-0.176615
-0.146121
-0.117625
-0.0925482
-0.069113
-0.455137
-0.463814
-0.47143
-0.477651
-0.482148
-0.484588
-0.48466
-0.482064
-0.476533
-0.467831
-0.455766
-0.440216
-0.421145
-0.398633
-0.372908
-0.344365
-0.313571
-0.281253
-0.248227
-0.2154
-0.183517
-0.153503
-0.125475
-0.100765
-0.0777297
-0.455606
-0.46431
-0.47198
-0.478277
-0.482877
-0.485452
-0.485688
-0.483287
-0.477979
-0.469523
-0.457725
-0.442455
-0.423676
-0.401468
-0.376066
-0.347874
-0.317473
-0.285602
-0.253081
-0.22081
-0.189515
-0.160082
-0.132625
-0.108367
-0.0858141
-0.45563
-0.464314
-0.471983
-0.478308
-0.482962
-0.485618
-0.485964
-0.483702
-0.478557
-0.470285
-0.458688
-0.443634
-0.425084
-0.403127
-0.378009
-0.350153
-0.320157
-0.288775
-0.256825
-0.225194
-0.194583
-0.165827
-0.139033
-0.115306
-0.0933029
-0.463806
-0.471431
-0.477737
-0.482396
-0.485085
-0.48549
-0.483311
-0.47827
-0.470118
-0.458654
-0.443747
-0.425363
-0.403603
-0.378734
-0.351204
-0.321632
-0.290784
-0.259475
-0.22857
-0.198734
-0.170743
-0.144691
-0.121567
-0.100164
-0.462788
-0.470329
-0.476573
-0.481195
-0.483871
-0.484285
-0.482136
-0.477138
-0.469042
-0.457642
-0.442811
-0.424528
-0.402914
-0.378265
-0.35106
-0.32194
-0.291682
-0.261089
-0.230992
-0.202013
-0.174866
-0.149621
-0.127158
-0.106392
-0.461277
-0.468698
-0.474844
-0.47939
-0.482011
-0.482388
-0.480214
-0.475199
-0.467089
-0.45568
-0.440855
-0.42261
-0.401099
-0.376651
-0.349782
-0.321154
-0.29155
-0.261748
-0.232539
-0.204491
-0.17825
-0.153862
-0.132106
-0.111999
-0.459302
-0.466573
-0.47259
-0.477026
-0.479552
-0.479845
-0.47759
-0.472493
-0.464298
-0.452806
-0.437916
-0.419654
-0.398212
-0.373962
-0.347456
-0.319375
-0.290494
-0.261558
-0.233308
-0.20625
-0.180965
-0.157467
-0.13645
-0.117012
-0.456907
-0.464004
-0.469864
-0.474156
-0.476548
-0.476707
-0.474312
-0.469064
-0.460708
-0.449059
-0.434039
-0.415716
-0.394327
-0.370291
-0.344193
-0.316722
-0.288636
-0.260637
-0.233406
-0.207383
-0.183086
-0.160495
-0.140236
-0.121467
-0.45414
-0.461043
-0.46672
-0.470837
-0.473051
-0.473023
-0.470423
-0.464951
-0.456358
-0.444481
-0.429279
-0.410866
-0.389534
-0.365748
-0.340116
-0.313328
-0.28611
-0.259109
-0.23294
-0.20798
-0.184686
-0.163006
-0.143511
-0.125403
-0.457747
-0.463217
-0.467122
-0.469113
-0.468837
-0.465962
-0.460189
-0.451285
-0.439119
-0.423696
-0.405187
-0.383941
-0.360458
-0.335366
-0.309334
-0.283048
-0.257092
-0.232015
-0.208128
-0.185837
-0.165058
-0.146325
-0.128863
-0.454172
-0.459406
-0.463061
-0.464774
-0.464185
-0.46096
-0.454809
-0.445527
-0.433025
-0.417366
-0.398781
-0.377668
-0.354561
-0.330084
-0.304879
-0.279578
-0.254698
-0.230722
-0.207904
-0.186602
-0.166706
-0.148721
-0.131886
-0.450371
-0.455336
-0.458693
-0.460067
-0.459093
-0.455441
-0.448842
-0.439128
-0.426266
-0.410379
-0.39176
-0.37085
-0.348197
-0.324412
-0.300094
-0.275814
-0.252023
-0.229144
-0.207374
-0.187037
-0.167996
-0.150741
-0.134511
-0.446386
-0.451043
-0.454046
-0.455014
-0.45358
-0.449427
-0.44232
-0.432141
-0.418917
-0.402839
-0.384251
-0.363624
-0.341506
-0.31848
-0.295094
-0.271855
-0.24915
-0.227346
-0.206594
-0.187189
-0.168971
-0.152423
-0.136776
-0.446552
-0.44914
-0.449628
-0.447659
-0.442942
-0.435286
-0.42463
-0.411072
-0.394861
-0.376383
-0.356124
-0.334618
-0.312405
-0.289978
-0.267782
-0.246145
-0.225384
-0.20561
-0.187099
-0.169668
-0.1538
-0.138712
-0.44188
-0.443982
-0.443917
-0.441347
-0.436016
-0.42779
-0.416675
-0.402833
-0.386565
-0.368285
-0.348476
-0.327645
-0.306284
-0.284826
-0.263659
-0.243058
-0.223298
-0.204459
-0.186798
-0.170117
-0.154902
-0.14035
-0.43703
-0.438576
-0.437889
-0.43466
-0.428688
-0.419898
-0.408367
-0.394312
-0.378074
-0.360079
-0.340793
-0.320684
-0.300193
-0.279699
-0.259534
-0.239928
-0.221122
-0.203169
-0.186316
-0.170346
-0.155756
-0.141717
-0.432921
-0.431552
-0.427629
-0.42101
-0.411689
-0.399804
-0.385621
-0.369502
-0.35187
-0.333164
-0.313809
-0.294192
-0.274641
-0.255439
-0.236781
-0.218879
-0.201763
-0.185674
-0.170378
-0.156386
-0.142838
-0.42702
-0.424924
-0.420293
-0.413048
-0.403249
-0.391088
-0.376865
-0.36095
-0.343749
-0.325664
-0.307076
-0.288321
-0.26968
-0.251398
-0.233638
-0.216586
-0.20026
-0.184891
-0.170232
-0.156812
-0.143733
-0.420881
-0.418034
-0.412703
-0.404874
-0.394668
-0.382318
-0.368142
-0.352505
-0.335784
-0.318346
-0.300522
-0.282605
-0.264837
-0.247424
-0.230511
-0.214257
-0.198672
-0.183983
-0.169926
-0.157054
-0.144421
-0.410919
-0.404918
-0.396568
-0.386036
-0.373584
-0.359533
-0.344233
-0.328028
-0.311245
-0.294172
-0.27706
-0.26012
-0.243526
-0.227407
-0.2119
-0.197013
-0.182962
-0.169474
-0.157127
-0.14492
-0.403627
-0.397007
-0.388208
-0.377434
-0.364961
-0.351103
-0.336184
-0.320516
-0.304382
-0.288036
-0.271691
-0.255532
-0.239706
-0.22433
-0.209521
-0.195291
-0.181837
-0.168889
-0.157045
-0.145241
-0.396212
-0.389037
-0.379869
-0.368935
-0.356513
-0.342901
-0.328393
-0.313266
-0.297768
-0.282117
-0.266499
-0.251072
-0.235965
-0.221284
-0.207126
-0.193513
-0.180619
-0.168183
-0.156821
-0.145399
-0.381075
-0.371617
-0.360598
-0.348286
-0.334958
-0.320878
-0.306288
-0.291403
-0.276413
-0.261478
-0.246736
-0.2323
-0.218267
-0.204717
-0.191684
-0.179312
-0.167368
-0.156465
-0.145404
-0.373181
-0.363508
-0.352468
-0.340314
-0.327295
-0.313647
-0.299581
-0.285282
-0.270916
-0.256621
-0.242519
-0.228708
-0.21528
-0.202295
-0.189809
-0.177918
-0.166452
-0.155986
-0.145268
-0.355585
-0.344577
-0.332615
-0.319921
-0.306701
-0.293138
-0.279396
-0.265615
-0.251919
-0.238414
-0.225186
-0.212321
-0.199864
-0.187888
-0.176437
-0.165436
-0.15537
-0.144987
-0.34788
-0.336946
-0.325198
-0.312834
-0.300031
-0.28695
-0.273731
-0.260499
-0.247362
-0.234414
-0.22173
-0.20939
-0.197426
-0.185924
-0.174872
-0.164314
-0.154564
-0.14453
-0.329586
-0.318066
-0.306028
-0.293627
-0.281002
-0.268276
-0.255557
-0.24294
-0.230511
-0.218336
-0.206486
-0.194986
-0.183924
-0.173241
-0.163085
-0.153489
-0.143861
-0.322498
-0.311213
-0.299494
-0.287477
-0.275282
-0.263016
-0.250776
-0.238645
-0.226701
-0.215001
-0.20361
-0.192548
-0.181899
-0.171577
-0.161782
-0.152192
-0.143014
-0.304629
-0.293218
-0.281564
-0.269772
-0.257937
-0.246144
-0.234467
-0.222975
-0.21172
-0.200759
-0.190113
-0.179852
-0.169895
-0.160455
-0.151018
-0.142246
-0.2983
-0.287182
-0.275871
-0.264457
-0.253024
-0.241648
-0.230394
-0.219325
-0.208487
-0.197932
-0.187677
-0.177788
-0.16819
-0.15908
-0.150011
-0.141797
-0.28137
-0.27038
-0.25932
-0.248262
-0.237275
-0.226417
-0.215744
-0.205298
-0.195124
-0.185241
-0.175706
-0.166455
-0.157678
-0.148971
-0.141126
-0.265077
-0.254346
-0.24364
-0.233016
-0.222528
-0.212226
-0.202148
-0.192334
-0.182802
-0.173605
-0.164687
-0.156226
-0.147859
-0.140331
-0.259944
-0.249522
-0.239143
-0.228859
-0.218718
-0.208764
-0.199032
-0.189558
-0.180358
-0.171482
-0.162881
-0.15472
-0.146664
-0.139407
-0.244835
-0.234761
-0.224795
-0.214979
-0.205352
-0.195945
-0.186792
-0.177907
-0.169335
-0.161033
-0.153155
-0.145387
-0.138381
-0.230483
-0.220815
-0.211304
-0.201984
-0.192884
-0.184033
-0.175446
-0.167161
-0.159143
-0.151531
-0.144033
-0.137261
-0.21691
-0.207684
-0.198653
-0.189842
-0.181277
-0.172971
-0.16496
-0.15721
-0.149849
-0.142605
-0.136054
-0.204114
-0.195355
-0.186817
-0.178522
-0.170482
-0.162729
-0.155234
-0.148109
-0.141106
-0.134766
-0.200586
-0.192084
-0.183803
-0.175763
-0.167976
-0.160467
-0.153213
-0.146314
-0.13954
-0.133401
-0.188835
-0.180797
-0.172999
-0.16545
-0.158174
-0.151149
-0.144464
-0.137908
-0.131961
-0.177795
-0.170226
-0.162904
-0.155848
-0.14904
-0.14256
-0.136212
-0.130449
-0.167441
-0.160334
-0.153488
-0.146888
-0.140602
-0.134453
-0.128866
-0.151094
-0.144691
-0.138591
-0.132633
-0.127214
-0.142449
-0.136528
-0.130752
-0.125495
-0.134411
-0.128811
-0.123709
-0.126811
-0.121858
-0.126811
-0.121858
-0.134411
-0.128811
-0.123709
-0.142449
-0.136528
-0.130752
-0.125495
-0.151094
-0.144691
-0.138591
-0.132633
-0.127214
-0.167441
-0.160334
-0.153488
-0.146888
-0.140602
-0.134453
-0.128866
-0.177795
-0.170226
-0.162904
-0.155848
-0.14904
-0.14256
-0.136212
-0.130449
-0.188835
-0.180797
-0.172999
-0.16545
-0.158174
-0.151149
-0.144464
-0.137908
-0.131961
-0.200586
-0.192084
-0.183803
-0.175763
-0.167976
-0.160467
-0.153213
-0.146314
-0.13954
-0.133401
-0.21307
-0.204114
-0.195355
-0.186817
-0.178522
-0.170482
-0.162729
-0.155234
-0.148109
-0.141106
-0.134766
-0.21691
-0.207684
-0.198653
-0.189842
-0.181277
-0.172971
-0.16496
-0.15721
-0.149849
-0.142605
-0.136054
-0.230483
-0.220815
-0.211304
-0.201984
-0.192884
-0.184033
-0.175446
-0.167161
-0.159143
-0.151531
-0.144033
-0.137261
-0.244835
-0.234761
-0.224795
-0.214979
-0.205352
-0.195945
-0.186792
-0.177907
-0.169335
-0.161033
-0.153155
-0.145387
-0.138381
-0.259944
-0.249522
-0.239143
-0.228859
-0.218718
-0.208764
-0.199032
-0.189558
-0.180358
-0.171482
-0.162881
-0.15472
-0.146664
-0.139407
-0.265077
-0.254346
-0.243639
-0.233016
-0.222528
-0.212226
-0.202148
-0.192334
-0.182802
-0.173605
-0.164687
-0.156226
-0.147859
-0.140331
-0.28137
-0.27038
-0.25932
-0.248262
-0.237275
-0.226417
-0.215744
-0.205298
-0.195124
-0.185241
-0.175706
-0.166455
-0.157678
-0.148971
-0.141126
-0.2983
-0.287182
-0.275871
-0.264457
-0.253024
-0.241648
-0.230394
-0.219324
-0.208487
-0.197932
-0.187677
-0.177788
-0.16819
-0.15908
-0.150011
-0.141797
-0.304629
-0.293218
-0.281564
-0.269772
-0.257937
-0.246144
-0.234467
-0.222975
-0.21172
-0.200759
-0.190113
-0.179852
-0.169895
-0.160455
-0.151018
-0.142246
-0.322498
-0.311213
-0.299494
-0.287477
-0.275282
-0.263016
-0.250776
-0.238645
-0.226701
-0.215001
-0.20361
-0.192548
-0.181899
-0.171577
-0.161782
-0.152192
-0.143014
-0.329586
-0.318066
-0.306028
-0.293627
-0.281002
-0.268276
-0.255557
-0.24294
-0.230511
-0.218336
-0.206486
-0.194986
-0.183924
-0.173241
-0.163085
-0.153489
-0.143861
-0.34788
-0.336946
-0.325198
-0.312833
-0.300031
-0.28695
-0.273731
-0.260499
-0.247361
-0.234413
-0.22173
-0.20939
-0.197426
-0.185924
-0.174872
-0.164314
-0.154564
-0.14453
-0.355585
-0.344577
-0.332615
-0.319921
-0.3067
-0.293138
-0.279396
-0.265615
-0.251918
-0.238414
-0.225186
-0.212321
-0.199864
-0.187888
-0.176437
-0.165436
-0.15537
-0.144987
-0.373181
-0.363508
-0.352468
-0.340314
-0.327295
-0.313647
-0.29958
-0.285282
-0.270916
-0.256621
-0.242519
-0.228708
-0.21528
-0.202295
-0.189809
-0.177918
-0.166452
-0.155986
-0.145268
-0.381075
-0.371617
-0.360598
-0.348286
-0.334958
-0.320878
-0.306287
-0.291403
-0.276413
-0.261478
-0.246736
-0.2323
-0.218267
-0.204717
-0.191684
-0.179312
-0.167368
-0.156465
-0.145404
-0.396212
-0.389037
-0.379869
-0.368935
-0.356513
-0.342901
-0.328393
-0.313266
-0.297768
-0.282117
-0.266499
-0.251072
-0.235965
-0.221284
-0.207126
-0.193512
-0.180619
-0.168183
-0.15682
-0.145399
-0.403627
-0.397007
-0.388208
-0.377434
-0.364961
-0.351103
-0.336184
-0.320516
-0.304382
-0.288036
-0.271691
-0.255532
-0.239706
-0.22433
-0.209521
-0.19529
-0.181837
-0.168889
-0.157045
-0.145241
-0.410919
-0.404918
-0.396568
-0.386036
-0.373584
-0.359533
-0.344233
-0.328028
-0.311245
-0.294172
-0.27706
-0.260119
-0.243526
-0.227406
-0.2119
-0.197013
-0.182961
-0.169474
-0.157127
-0.144919
-0.420881
-0.418034
-0.412702
-0.404874
-0.394668
-0.382318
-0.368142
-0.352505
-0.335784
-0.318346
-0.300522
-0.282605
-0.264837
-0.247424
-0.230511
-0.214257
-0.198672
-0.183983
-0.169926
-0.157054
-0.144421
-0.42702
-0.424924
-0.420293
-0.413048
-0.403249
-0.391088
-0.376865
-0.36095
-0.343748
-0.325664
-0.307076
-0.288321
-0.26968
-0.251398
-0.233638
-0.216586
-0.200259
-0.184891
-0.170232
-0.156812
-0.143733
-0.432921
-0.431552
-0.427629
-0.42101
-0.411689
-0.399804
-0.38562
-0.369502
-0.35187
-0.333164
-0.313809
-0.294192
-0.27464
-0.255439
-0.236781
-0.218879
-0.201763
-0.185674
-0.170378
-0.156386
-0.142837
-0.437031
-0.438576
-0.437889
-0.43466
-0.428688
-0.419898
-0.408367
-0.394312
-0.378074
-0.360078
-0.340792
-0.320684
-0.300193
-0.279699
-0.259533
-0.239928
-0.221122
-0.203169
-0.186316
-0.170346
-0.155756
-0.141717
-0.44188
-0.443982
-0.443917
-0.441346
-0.436016
-0.427789
-0.416675
-0.402833
-0.386565
-0.368285
-0.348476
-0.327645
-0.306284
-0.284826
-0.263659
-0.243058
-0.223298
-0.204459
-0.186798
-0.170117
-0.154902
-0.14035
-0.446552
-0.44914
-0.449628
-0.447659
-0.442942
-0.435285
-0.42463
-0.411072
-0.39486
-0.376382
-0.356123
-0.334617
-0.312405
-0.289978
-0.267782
-0.246145
-0.225384
-0.20561
-0.187099
-0.169667
-0.1538
-0.138712
-0.446387
-0.451043
-0.454046
-0.455014
-0.45358
-0.449427
-0.44232
-0.432141
-0.418917
-0.402839
-0.38425
-0.363623
-0.341506
-0.31848
-0.295093
-0.271855
-0.24915
-0.227346
-0.206594
-0.187189
-0.168971
-0.152423
-0.136776
-0.450371
-0.455336
-0.458693
-0.460067
-0.459093
-0.455441
-0.448842
-0.439128
-0.426265
-0.410379
-0.39176
-0.37085
-0.348197
-0.324412
-0.300093
-0.275814
-0.252023
-0.229144
-0.207373
-0.187037
-0.167996
-0.150741
-0.134511
-0.454172
-0.459406
-0.463061
-0.464773
-0.464185
-0.46096
-0.454809
-0.445527
-0.433025
-0.417366
-0.39878
-0.377668
-0.354561
-0.330084
-0.304879
-0.279578
-0.254698
-0.230722
-0.207903
-0.186602
-0.166705
-0.148721
-0.131886
-0.457747
-0.463217
-0.467122
-0.469112
-0.468837
-0.465962
-0.460189
-0.451285
-0.439118
-0.423695
-0.405187
-0.38394
-0.360458
-0.335366
-0.309334
-0.283048
-0.257092
-0.232015
-0.208128
-0.185837
-0.165058
-0.146325
-0.128863
-0.45414
-0.461043
-0.46672
-0.470837
-0.473051
-0.473023
-0.470423
-0.464951
-0.456358
-0.444481
-0.429278
-0.410865
-0.389534
-0.365747
-0.340116
-0.313328
-0.28611
-0.259108
-0.23294
-0.20798
-0.184686
-0.163005
-0.143511
-0.125403
-0.456907
-0.464004
-0.469864
-0.474156
-0.476548
-0.476706
-0.474311
-0.469064
-0.460708
-0.449059
-0.434039
-0.415715
-0.394327
-0.370291
-0.344192
-0.316722
-0.288636
-0.260637
-0.233405
-0.207383
-0.183085
-0.160494
-0.140235
-0.121467
-0.459302
-0.466573
-0.47259
-0.477026
-0.479552
-0.479845
-0.47759
-0.472493
-0.464297
-0.452806
-0.437915
-0.419653
-0.398212
-0.373962
-0.347456
-0.319375
-0.290493
-0.261557
-0.233308
-0.20625
-0.180965
-0.157467
-0.13645
-0.117012
-0.461277
-0.468698
-0.474843
-0.479389
-0.482011
-0.482388
-0.480213
-0.475199
-0.467088
-0.45568
-0.440854
-0.422609
-0.401098
-0.376651
-0.349781
-0.321154
-0.29155
-0.261747
-0.232539
-0.204491
-0.17825
-0.153862
-0.132106
-0.111999
-0.462788
-0.470329
-0.476573
-0.481194
-0.483871
-0.484285
-0.482135
-0.477138
-0.469041
-0.457642
-0.442811
-0.424527
-0.402914
-0.378265
-0.351059
-0.321939
-0.291682
-0.261088
-0.230992
-0.202013
-0.174865
-0.149621
-0.127158
-0.106392
-0.463806
-0.471431
-0.477737
-0.482396
-0.485085
-0.48549
-0.483311
-0.478269
-0.470118
-0.458654
-0.443747
-0.425362
-0.403603
-0.378734
-0.351204
-0.321632
-0.290784
-0.259475
-0.22857
-0.198734
-0.170743
-0.144691
-0.121567
-0.100164
-0.45563
-0.464314
-0.471983
-0.478308
-0.482962
-0.485618
-0.485964
-0.483702
-0.478557
-0.470285
-0.458688
-0.443633
-0.425084
-0.403127
-0.378008
-0.350153
-0.320157
-0.288774
-0.256824
-0.225194
-0.194583
-0.165827
-0.139033
-0.115306
-0.0933028
-0.455607
-0.46431
-0.47198
-0.478277
-0.482877
-0.485452
-0.485687
-0.483287
-0.477979
-0.469523
-0.457724
-0.442455
-0.423676
-0.401468
-0.376065
-0.347874
-0.317472
-0.285602
-0.253081
-0.22081
-0.189515
-0.160082
-0.132625
-0.108367
-0.085814
-0.455137
-0.463814
-0.47143
-0.477651
-0.482147
-0.484588
-0.484659
-0.482064
-0.476533
-0.46783
-0.455766
-0.440216
-0.421144
-0.398632
-0.372907
-0.344364
-0.31357
-0.281252
-0.248226
-0.2154
-0.183517
-0.153503
-0.125475
-0.100764
-0.0777295
-0.454255
-0.462857
-0.470371
-0.476464
-0.480802
-0.483054
-0.482904
-0.480058
-0.474244
-0.465233
-0.45284
-0.436946
-0.417524
-0.394656
-0.368572
-0.339662
-0.308483
-0.275754
-0.242286
-0.208988
-0.176615
-0.146121
-0.117625
-0.092548
-0.0691129
-0.453012
-0.461491
-0.468855
-0.474769
-0.478897
-0.480906
-0.480481
-0.477325
-0.47117
-0.461791
-0.449009
-0.432714
-0.412885
-0.389615
-0.363138
-0.333844
-0.302289
-0.269184
-0.235334
-0.201645
-0.168882
-0.13801
-0.109158
-0.0838036
-0.060064
-0.451471
-0.459785
-0.466955
-0.472643
-0.476511
-0.478227
-0.477474
-0.473953
-0.467405
-0.457602
-0.444377
-0.427626
-0.407345
-0.38363
-0.356733
-0.327043
-0.295121
-0.261672
-0.227499
-0.1935
-0.160445
-0.129296
-0.100202
-0.0746592
-0.0507232
-0.449709
-0.457823
-0.46476
-0.470181
-0.473748
-0.475128
-0.474001
-0.470072
-0.463081
-0.452806
-0.439091
-0.421843
-0.401072
-0.376873
-0.349538
-0.319444
-0.287169
-0.25341
-0.218971
-0.184736
-0.151484
-0.120154
-0.0909347
-0.0652869
-0.041272
-0.447811
-0.455699
-0.462375
-0.467501
-0.470735
-0.471745
-0.47021
-0.465837
-0.458363
-0.447587
-0.433346
-0.415567
-0.39427
-0.369585
-0.341796
-0.311292
-0.278681
-0.244648
-0.209996
-0.175597
-0.142233
-0.110814
-0.0815773
-0.0559011
-0.0319305
-0.44587
-0.453517
-0.459917
-0.46473
-0.467614
-0.468235
-0.466274
-0.461437
-0.453468
-0.442166
-0.427382
-0.409054
-0.387221
-0.362034
-0.333785
-0.302903
-0.269971
-0.235694
-0.20088
-0.166382
-0.132981
-0.10155
-0.0723922
-0.0467536
-0.0229511
-0.44398
-0.451384
-0.457507
-0.462007
-0.46454
-0.464771
-0.462383
-0.457083
-0.448618
-0.436785
-0.421467
-0.402598
-0.380237
-0.354556
-0.325865
-0.294612
-0.261391
-0.226919
-0.191979
-0.157432
-0.124054
-0.0926775
-0.0636721
-0.0381242
-0.0146059
-0.434078
-0.442234
-0.449408
-0.455268
-0.459469
-0.461669
-0.46153
-0.458736
-0.452996
-0.444061
-0.431732
-0.415901
-0.396517
-0.373658
-0.347514
-0.318413
-0.28682
-0.25334
-0.218697
-0.183684
-0.149125
-0.115808
-0.0845335
-0.0557269
-0.0303075
-0.00716956
-0.432739
-0.440718
-0.447688
-0.453314
-0.457251
-0.459154
-0.458686
-0.455529
-0.449396
-0.44004
-0.42727
-0.410973
-0.391138
-0.367837
-0.341283
-0.311821
-0.279933
-0.246235
-0.211452
-0.176382
-0.141844
-0.108618
-0.0774634
-0.0488684
-0.0235971
-0.000897997
-0.431673
-0.439509
-0.446313
-0.451748
-0.45547
-0.457131
-0.456395
-0.452943
-0.446489
-0.43679
-0.423659
-0.406985
-0.386775
-0.363113
-0.336224
-0.306468
-0.274343
-0.240472
-0.205585
-0.170476
-0.135966
-0.102832
-0.0718012
-0.0433944
-0.0182693
0.00399214
-0.430932
-0.438667
-0.445354
-0.450656
-0.454225
-0.455716
-0.454789
-0.451128
-0.444446
-0.434503
-0.421116
-0.404181
-0.383698
-0.359777
-0.332651
-0.302687
-0.270394
-0.236402
-0.201444
-0.166315
-0.13183
-0.0987665
-0.0678323
-0.0395738
-0.0145641
0.00733824
-0.430553
-0.438236
-0.444862
-0.450094
-0.453584
-0.454987
-0.453962
-0.450192
-0.443392
-0.433321
-0.419801
-0.402728
-0.382105
-0.358051
-0.3308
-0.300729
-0.268348
-0.234294
-0.1993
-0.164163
-0.129693
-0.096667
-0.0657854
-0.0376065
-0.0126623
0.00903616
0.0277182
0.0439124
0.0562561
0.0650491
0.070826
0.0741028
0.075346
0.0749826
0.0733934
0.0709069
0.0677938
0.0642726
0.0605152
0.0566536
0.0527869
0.0489867
0.0453029
0.0417689
0.0384053
0.0352234
0.0322286
0.0294218
0.0268015
0.024365
0.022108
0.0200257
0.0181117
0.0163587
0.0147582
0.0133007
0.0119764
0.0107749
0.0096862
0.0087006
0.00780894
0.00700272
0.00627417
0.00561612
0.00502215
0.00448643
0.00400351
0.00356929
0.00317982
0.00282725
0.00251054
0.00222625
0.00197141
0.00174313
0.0015389
0.00135643
0.00119365
0.00104867
0.000919746
0.000805281
0.000703826
0.000614054
0.000534757
0.000464838
0.000403298
0.000349234
0.000301828
0.00026034
0.000224103
0.000192515
0.000165036
0.00014118
0.000120514
0.00010265
8.72403e-05
7.39781e-05
6.25893e-05
5.28318e-05
4.44911e-05
3.73783e-05
3.1327e-05
2.61913e-05
2.18432e-05
1.81712e-05
1.5078e-05
1.24789e-05
1.03006e-05
8.47981e-06
6.9618e-06
5.69973e-06
4.65301e-06
3.78753e-06
3.07335e-06
2.48613e-06
2.00366e-06
1.60923e-06
1.28592e-06
1.02318e-06
8.07131e-07
6.32685e-07
4.86769e-07
3.69798e-07
2.66904e-07
1.85131e-07
1.04219e-07
4.04183e-08
0.0259901
0.0423985
0.0549344
0.0638742
0.0697809
0.073177
0.0745278
0.0742611
0.0727588
0.07035
0.0673064
0.0638469
0.0601441
0.0563309
0.0525067
0.0487439
0.0450931
0.0415882
0.0382501
0.0350908
0.0321158
0.0293263
0.0267212
0.0242976
0.0220518
0.0199788
0.0180727
0.0163263
0.0147311
0.0132781
0.0119574
0.0107589
0.00967263
0.00868904
0.00779905
0.00699423
0.00626684
0.00560977
0.00501664
0.00448162
0.00399929
0.00356551
0.00317626
0.00282425
0.00250801
0.00222406
0.0019695
0.00174146
0.00153743
0.00135515
0.00119253
0.00104769
0.000918884
0.000804528
0.000703169
0.000613481
0.000534258
0.000464403
0.00040292
0.000348906
0.000301544
0.000260094
0.000223891
0.000192332
0.000164878
0.000141045
0.000120398
0.00010255
8.71555e-05
7.39058e-05
6.25278e-05
5.27796e-05
4.44469e-05
3.73409e-05
3.12955e-05
2.61648e-05
2.1821e-05
1.81527e-05
1.50624e-05
1.24659e-05
1.02898e-05
8.47092e-06
6.95445e-06
5.69367e-06
4.64803e-06
3.78345e-06
3.07002e-06
2.48341e-06
2.00146e-06
1.60745e-06
1.28448e-06
1.02204e-06
8.0621e-07
6.31985e-07
4.86204e-07
3.69381e-07
2.66606e-07
1.84905e-07
1.04115e-07
4.03641e-08
0.0225908
0.0394074
0.052314
0.0615401
0.0677017
0.0713334
0.0728977
0.0728237
0.0714947
0.0692413
0.0663366
0.0630005
0.059407
0.0556902
0.051951
0.0482628
0.0446775
0.0412302
0.0379428
0.0348282
0.0318923
0.029137
0.0265617
0.0241638
0.02194
0.0198856
0.0179951
0.0162616
0.0146772
0.013233
0.0119195
0.0107269
0.00964551
0.00866595
0.00777929
0.00697725
0.00625218
0.00559708
0.0050056
0.004472
0.00399087
0.00355797
0.00316895
0.00281827
0.00250294
0.00221969
0.00196569
0.00173812
0.00153451
0.00135258
0.00119028
0.00104572
0.00091716
0.000803021
0.000701853
0.000612333
0.000533258
0.000463533
0.000402164
0.00034825
0.000300975
0.000259603
0.000223466
0.000191966
0.000164563
0.000140774
0.000120166
0.000102352
8.69858e-05
7.37612e-05
6.24049e-05
5.26752e-05
4.43585e-05
3.72662e-05
3.12326e-05
2.61118e-05
2.17766e-05
1.81155e-05
1.50314e-05
1.24401e-05
1.02684e-05
8.45313e-06
6.93975e-06
5.68156e-06
4.63808e-06
3.77529e-06
3.06336e-06
2.47798e-06
1.99706e-06
1.60389e-06
1.28162e-06
1.01975e-06
8.04395e-07
6.30552e-07
4.85101e-07
3.68538e-07
2.65997e-07
1.84483e-07
1.03876e-07
4.02683e-08
0.0176388
0.0350067
0.0484446
0.0580833
0.064615
0.0685921
0.070472
0.0706838
0.0696134
0.0675923
0.0648952
0.0617438
0.0583138
0.0547411
0.0511284
0.0475513
0.0440635
0.0407016
0.0374891
0.0344402
0.0315619
0.0288571
0.0263255
0.0239654
0.0217739
0.019747
0.0178795
0.0161651
0.0145966
0.0131655
0.0118627
0.010679
0.00960489
0.00863133
0.00774966
0.00695178
0.0062302
0.00557805
0.00498906
0.00445757
0.00397823
0.0035467
0.00315845
0.00280937
0.00249536
0.00221314
0.00195996
0.00173311
0.00153011
0.00134873
0.0011869
0.00104276
0.000914573
0.00080076
0.000699878
0.000610611
0.000531757
0.000462227
0.000401029
0.000347266
0.000300123
0.000258865
0.000222829
0.000191416
0.00016409
0.000140368
0.000119818
0.000102054
8.67313e-05
7.35442e-05
6.22204e-05
5.25187e-05
4.42259e-05
3.71542e-05
3.11381e-05
2.60324e-05
2.171e-05
1.80597e-05
1.49848e-05
1.24013e-05
1.02362e-05
8.42645e-06
6.91771e-06
5.6634e-06
4.62316e-06
3.76306e-06
3.05337e-06
2.46985e-06
1.99046e-06
1.59856e-06
1.27733e-06
1.01632e-06
8.01674e-07
6.28406e-07
4.83446e-07
3.67274e-07
2.65084e-07
1.83849e-07
1.03519e-07
4.01263e-08
0.0113103
0.0293068
0.0434065
0.053567
0.0605693
0.064991
0.0672811
0.067867
0.067137
0.0654226
0.0630001
0.0600932
0.0568794
0.0534972
0.0500518
0.0466211
0.0432613
0.0400113
0.0368968
0.0339335
0.0311302
0.0284907
0.0260159
0.0237049
0.0215555
0.0195642
0.0177268
0.0160376
0.0144899
0.013076
0.0117874
0.0106153
0.00955085
0.00858525
0.0077102
0.00691784
0.00620091
0.00555267
0.004967
0.00443833
0.00396139
0.00353175
0.00314502
0.0027976
0.00248528
0.00220441
0.00195233
0.00172643
0.00152425
0.00134359
0.0011824
0.00103882
0.000911123
0.000797744
0.000697245
0.000608314
0.000529756
0.000460486
0.000399516
0.000345953
0.000298985
0.000257881
0.000221979
0.000190684
0.00016346
0.000139827
0.000119354
0.000101656
8.6392e-05
7.32551e-05
6.19744e-05
5.231e-05
4.40492e-05
3.70049e-05
3.10123e-05
2.59266e-05
2.16212e-05
1.79854e-05
1.49228e-05
1.23497e-05
1.01933e-05
8.39091e-06
6.88834e-06
5.6392e-06
4.60327e-06
3.74677e-06
3.04006e-06
2.45902e-06
1.98167e-06
1.59146e-06
1.27162e-06
1.01174e-06
7.98049e-07
6.25549e-07
4.81241e-07
3.65591e-07
2.63869e-07
1.83005e-07
1.03044e-07
3.99378e-08
0.00382592
0.0224642
0.0373162
0.0480844
0.0556388
0.0605893
0.0633736
0.0644134
0.0640998
0.0627619
0.0606771
0.058071
0.0551237
0.0519762
0.0487366
0.0454858
0.0422829
0.0391698
0.0361747
0.0333156
0.0306032
0.0280429
0.0256369
0.0233854
0.0212869
0.019339
0.0175382
0.0158797
0.0143575
0.0129648
0.0116937
0.010536
0.00948348
0.00852776
0.00766093
0.00687545
0.0061643
0.00552096
0.00493943
0.00441428
0.00394036
0.00351314
0.00312856
0.00278299
0.00247271
0.0021935
0.00194279
0.00171807
0.00151692
0.00133716
0.00117677
0.00103389
0.000906807
0.000793972
0.000693952
0.000605442
0.000527254
0.000458309
0.000397625
0.000344311
0.000297563
0.000256651
0.000220917
0.000189768
0.000162672
0.00013915
0.000118773
0.00010116
8.59679e-05
7.28936e-05
6.16671e-05
5.20491e-05
4.38284e-05
3.68184e-05
3.0855e-05
2.57944e-05
2.15103e-05
1.78926e-05
1.48453e-05
1.22851e-05
1.01397e-05
8.3465e-06
6.85166e-06
5.60897e-06
4.57844e-06
3.72643e-06
3.02344e-06
2.44549e-06
1.9707e-06
1.58259e-06
1.26449e-06
1.00604e-06
7.93524e-07
6.21982e-07
4.78488e-07
3.6349e-07
2.62352e-07
1.8195e-07
1.02451e-07
3.97029e-08
-0.00456349
0.0146761
0.0303236
0.0417575
0.0499238
0.0554694
0.058817
0.0603796
0.0605484
0.0596497
0.0579597
0.0557061
0.0530713
0.0501991
0.0472009
0.044161
0.0411419
0.0381887
0.0353327
0.0325948
0.0299878
0.0275192
0.0251928
0.02301
0.0209706
0.0190732
0.0173151
0.0156924
0.0142002
0.0128323
0.0115819
0.0104413
0.00940289
0.00845893
0.00760191
0.00682464
0.00612041
0.00548291
0.00490635
0.00438543
0.00391514
0.00349089
0.00310893
0.00276552
0.00245765
0.00218042
0.00193135
0.00170804
0.00150813
0.00132945
0.00117001
0.00102796
0.000901627
0.000789444
0.000689998
0.000601994
0.000524251
0.000455696
0.000395354
0.000342341
0.000295856
0.000255174
0.000219642
0.000188669
0.000161726
0.000138337
0.000118077
0.000100564
8.54591e-05
7.246e-05
6.12984e-05
5.17363e-05
4.35635e-05
3.65946e-05
3.06664e-05
2.56358e-05
2.13772e-05
1.77812e-05
1.47524e-05
1.22077e-05
1.00754e-05
8.29327e-06
6.80768e-06
5.57273e-06
4.54867e-06
3.70204e-06
3.00353e-06
2.42927e-06
1.95755e-06
1.57196e-06
1.25595e-06
9.992e-07
7.88103e-07
6.17709e-07
4.7519e-07
3.60974e-07
2.60534e-07
1.80685e-07
1.01742e-07
3.94218e-08
-0.0135932
0.00616701
0.0226038
0.0347309
0.0435456
0.0497321
0.0536955