/*--------------------------------*- C++ -*----------------------------------*\
  =========                 |
  \\      /  F ield         | OpenFOAM: The Open Source CFD Toolbox
   \\    /   O peration     | Website:  https://openfoam.org
    \\  /    A nd           | Version:  7
     \\/     M anipulation  |
\*---------------------------------------------------------------------------*/
FoamFile
{
    version     2.0;
    format      ascii;
    class       surfaceScalarField;
    location    "5";
    object      phi;
}
// * * * * * * * * * * * * * * * * * * * * * * * * * * * * * * * * * * * * * //

dimensions      [0 3 -1 0 0 0 0];

internalField   nonuniform List<scalar> 
48038
(
-0.00096119
8.83623e-05
-1.44141e-09
-0.00104951
8.83259e-05
-1.58822e-09
-0.00113674
8.72264e-05
-1.71643e-09
-0.00122167
8.49305e-05
-1.82151e-09
-0.00130297
8.13034e-05
-1.89859e-09
-0.00137918
7.62104e-05
-1.94306e-09
-0.00144869
6.95175e-05
-1.95084e-09
-0.00150979
6.10949e-05
-1.9183e-09
-0.0015606
5.08198e-05
-1.84253e-09
-0.00159919
3.85837e-05
-1.72133e-09
-0.00162349
2.43021e-05
-1.55575e-09
-0.0016314
7.91122e-06
-1.34893e-09
-0.00162087
-1.05226e-05
-1.08675e-09
-0.00158991
-3.09625e-05
-7.93807e-10
-0.00153664
-5.32661e-05
-4.67712e-10
-0.00145948
-7.71661e-05
-1.16778e-10
-0.00135717
-0.000102307
2.47435e-10
-0.00122893
-0.000128243
6.14559e-10
-0.00107448
-0.000154446
9.70605e-10
-0.000894123
-0.000180361
1.30127e-09
-0.000688723
-0.000205402
1.59848e-09
-0.000459669
-0.000229056
1.84653e-09
-0.000208833
-0.000250838
2.03434e-09
6.19078e-05
-0.000270743
2.17539e-09
0.000349815
-0.00028791
2.24202e-09
-0.000305067
2.25982e-09
0.00065488
-0.00094842
0.000174856
-0.00103465
0.000174555
-0.00111954
0.000172114
-0.00120187
0.000167268
-0.00128032
0.00015975
-0.0013534
0.000149293
-0.00141952
0.000135635
-0.00147695
0.00011852
-0.00152384
9.7709e-05
-0.00155824
7.29892e-05
-0.00157814
4.4199e-05
-0.00158143
1.1202e-05
-0.00156613
-2.58243e-05
-0.00153023
-6.68577e-05
-0.00147192
-0.000111574
-0.00138965
-0.000159441
-0.00128221
-0.000209744
-0.00114887
-0.000261584
-0.000989422
-0.000313894
-0.000804214
-0.000365568
-0.000594211
-0.000415405
-0.000360879
-0.000462388
-0.000106179
-0.000505538
0.000167776
-0.000544699
0.000458049
-0.000578183
-0.000611796
0.000764778
-0.000923152
0.000257668
-0.00100526
0.000256662
-0.00108556
0.000252411
-0.00116281
0.000244525
-0.00123567
0.000232611
-0.00130266
0.000216279
-0.00136217
0.000195144
-0.00141248
0.000168836
-0.00145178
0.000137008
-0.00147815
9.93579e-05
-0.00148962
5.56637e-05
-0.00148411
5.69286e-06
-0.00145976
-5.01766e-05
-0.00141457
-0.000112039
-0.00134684
-0.000179306
-0.00125509
-0.000251191
-0.00113822
-0.000326614
-0.000995597
-0.00040421
-0.000827132
-0.000482359
-0.000633288
-0.000559413
-0.000415198
-0.000633495
-0.000174462
-0.000703124
8.66719e-05
-0.000766671
0.000366058
-0.000824085
0.000660156
-0.00087228
-0.000920991
0.000969351
-0.000885902
0.000335093
-0.000961989
0.000332749
-0.0010356
0.000326026
-0.00110549
0.000314413
-0.00117028
0.000297401
-0.00122849
0.000274487
-0.00127853
0.000245181
-0.0013187
0.000209012
-0.00134724
0.000165546
-0.00136229
0.000114405
-0.00136192
5.52926e-05
-0.00134429
-1.19355e-05
-0.00130743
-8.70313e-05
-0.0012496
-0.000169873
-0.00116917
-0.000259737
-0.0010648
-0.000355556
-0.00093554
-0.000455878
-0.000780895
-0.000558856
-0.000600958
-0.000662296
-0.000396336
-0.000764034
-0.000168351
-0.000861479
8.10676e-05
-0.000952543
0.000349566
-0.00103517
0.000634809
-0.00110933
0.000932729
-0.0011702
-0.0012321
0.00124384
-0.000837413
-0.00090577
0.000401106
-0.000970837
0.000391094
-0.00103134
0.000374916
-0.0010859
0.000351961
-0.00113304
0.000321632
-0.00117122
0.000283351
-0.00119877
0.000236571
-0.00121402
0.000180789
-0.00121519
0.000115577
-0.00120047
4.05724e-05
-0.00116818
-4.42264e-05
-0.00111648
-0.000138731
-0.00104377
-0.000242586
-0.000948596
-0.000354907
-0.000829803
-0.000474349
-0.0006866
-0.000599081
-0.000518695
-0.00072676
-0.000326412
-0.00085458
-0.000110401
-0.000980045
0.000127416
-0.0010993
0.000385213
-0.00121034
0.00066035
-0.00131031
0.000950242
-0.00139922
0.00125055
-0.00147051
-0.00154324
0.00156168
-0.000837769
0.000460249
-0.000892698
0.000446022
-0.000942128
0.000424346
-0.000984691
0.000394524
-0.00101895
0.000355887
-0.00104339
0.000307793
-0.00105646
0.000249644
-0.00105657
0.000180894
-0.00104209
0.000101104
-0.00101134
9.81974e-06
-0.000962841
-9.27249e-05
-0.000894914
-0.000206657
-0.000806154
-0.000331346
-0.000695309
-0.000465752
-0.000561421
-0.000608237
-0.000403904
-0.000756598
-0.000222637
-0.000908027
-1.7976e-05
-0.00105924
0.000208161
-0.00120618
0.00045482
-0.00134596
0.000719521
-0.00147504
0.000999365
-0.00159015
0.00129159
-0.00169145
0.00159183
-0.00177075
-0.00185152
0.00190012
-0.000759345
0.000508948
-0.000802848
0.000489525
-0.000839878
0.000461376
-0.000869097
0.000423743
-0.000889119
0.000375909
-0.000898522
0.000317196
-0.000895858
0.00024698
-0.000879667
0.000164704
-0.000848457
6.98939e-05
-0.000800888
-3.77499e-05
-0.000735407
-0.000158205
-0.000650721
-0.000291344
-0.000545594
-0.000436473
-0.000418982
-0.000592364
-0.000270147
-0.000757071
-9.86753e-05
-0.000928069
9.50874e-05
-0.00110179
0.000310345
-0.0012745
0.000545988
-0.00144182
0.00079976
-0.00159973
0.00106915
-0.00174443
0.00135117
-0.00187217
0.00164284
-0.00198311
0.00194004
-0.00206795
-0.0021536
0.00224212
-0.000671994
0.000546245
-0.000703102
0.000520633
-0.000726775
0.000485049
-0.000741725
0.000438694
-0.000746649
0.000380833
-0.000740232
0.000310779
-0.000721162
0.000227909
-0.000688139
0.000131681
-0.000639853
2.16075e-05
-0.00057513
-0.000102473
-0.000492665
-0.00024067
-0.000391337
-0.000392672
-0.00027014
-0.00055767
-0.000128208
-0.000734296
3.49417e-05
-0.000920222
0.000219249
-0.00111238
0.000424435
-0.00130698
0.000649382
-0.00149945
0.000892419
-0.00168486
0.00115117
-0.00185848
0.00142278
-0.00201605
0.00170419
-0.00215358
0.0019922
-0.00227112
0.00228322
-0.00235898
-0.00244606
0.00257568
-0.000577303
0.000571455
-0.000595363
0.000538693
-0.000605078
0.000494764
-0.000605239
0.000438855
-0.000594645
0.000370239
-0.000572111
0.000288244
-0.000536476
0.000192274
-0.000486593
8.17982e-05
-0.00042141
-4.35752e-05
-0.000339813
-0.00018407
-0.000240792
-0.000339691
-0.000123384
-0.000510081
1.32442e-05
-0.000694298
0.000169566
-0.000890618
0.000345944
-0.0010966
0.000542201
-0.00130863
0.000757523
-0.0015223
0.000990489
-0.00173241
0.00123903
-0.0019334
0.0015005
-0.00211994
0.00177175
-0.0022873
0.00204969
-0.00243151
0.00233094
-0.00255238
0.00261267
-0.00264071
-0.00272569
0.00289231
-0.000476897
0.000584158
-0.000481557
0.000543353
-0.000477052
0.000490259
-0.000462271
0.000424075
-0.000436136
0.000344104
-0.000397602
0.00024971
-0.00034567
0.000140343
-0.000279357
1.54845e-05
-0.000197783
-0.000125149
-0.000100008
-0.000281844
1.4815e-05
-0.000454514
0.000147433
-0.000642698
0.00029847
-0.000845336
0.000468332
-0.00106048
0.000656975
-0.00128524
0.000863893
-0.00151555
0.00108791
-0.00174632
0.00132719
-0.00197169
0.00157922
-0.00218543
0.00184106
-0.00238178
0.0021093
-0.00255555
0.00238091
-0.00270312
0.00265242
-0.00282389
0.00292193
-0.00291022
-0.00298971
0.00318594
-0.000372403
0.000584187
-0.000363588
0.000534539
-0.000344903
0.000471574
-0.000315351
0.000394523
-0.000273985
0.000302738
-0.000219908
0.000195633
-0.000152265
7.26999e-05
-7.02723e-05
-6.6508e-05
2.6884e-05
-0.000222306
0.000139935
-0.000394895
0.000269593
-0.000584173
0.000416476
-0.000789581
0.00058101
-0.00100987
0.000763337
-0.00124281
0.00096312
-0.00148503
0.00117944
-0.00173187
0.00141064
-0.00197753
0.00165442
-0.00221547
0.0019078
-0.00243881
0.00216755
-0.00264153
0.00243008
-0.00281808
0.00269253
-0.00296556
0.00295151
-0.00308287
0.00320617
-0.00316487
-0.00323587
0.00345233
-0.000265409
0.000571602
-0.000243294
0.000512423
-0.000210731
0.000439011
-0.000166844
0.000350636
-0.000110827
0.00024672
-4.19196e-05
0.000126726
4.05929e-05
-9.81258e-06
0.000137381
-0.000163296
0.000249122
-0.000334046
0.000376452
-0.000522225
0.000519967
-0.000727688
0.000680138
-0.000949752
0.000857196
-0.00118693
0.00105099
-0.0014366
0.00126079
-0.00169482
0.00148517
-0.00195625
0.00172194
-0.0022143
0.00196824
-0.00246177
0.00222065
-0.00269123
0.00247571
-0.00289658
0.00272981
-0.00307219
0.00298038
-0.00321613
0.00322437
-0.00332685
0.00346198
-0.00340248
-0.00346262
0.00368872
-0.00015744
0.000546666
-0.000122407
0.00047739
-7.64814e-05
0.000393085
-1.89122e-05
0.000293067
5.09897e-05
0.000176818
0.000133852
4.38638e-05
0.000230275
-0.000106236
0.000340853
-0.000273874
0.000466174
-0.000459367
0.000606808
-0.000662859
0.000763251
-0.000884131
0.000935824
-0.00112232
0.00112451
-0.00137562
0.0013288
-0.00164088
0.00154744
-0.00191347
0.00177842
-0.00218723
0.00201892
-0.0024548
0.00226553
-0.00270837
0.00251445
-0.00294015
0.00276212
-0.00314425
0.00300511
-0.00331518
0.00324132
-0.00345235
0.00346827
-0.0035538
0.00368722
-0.00362144
-0.00366916
0.00389376
-4.99207e-05
0.000509814
-2.54608e-06
0.000430015
5.60867e-05
0.000334453
0.000126557
0.000222597
0.000209448
9.39277e-05
0.000305303
-5.19918e-05
0.000414655
-0.000215588
0.000538045
-0.000397264
0.000676022
-0.000597344
0.000829105
-0.000815942
0.00099769
-0.00105272
0.0011819
-0.00130654
0.0013814
-0.00157512
0.00159517
-0.00185465
0.00182136
-0.00213966
0.00205725
-0.00242312
0.00229935
-0.0026969
0.00254376
-0.00295278
0.00278647
-0.00318286
0.003024
-0.00338178
0.00325337
-0.00354454
0.00347313
-0.00367211
0.00368158
-0.00376225
0.00388097
-0.00382083
-0.00385551
0.00406732
5.58501e-05
0.000114926
0.00037094
0.000185443
0.000263936
0.000267936
0.000140104
0.000362894
-1.03005e-06
0.000470803
-0.000159901
0.000592166
-0.000336952
0.000727518
-0.000532615
0.000877393
-0.00074722
0.00104226
-0.000980808
0.00122237
-0.00123283
0.00141757
-0.00150174
0.00162705
-0.0017846
0.00184918
-0.00207678
0.00208135
-0.00237183
0.0023201
-0.00266187
0.00256132
-0.00293812
0.00280076
-0.00319222
0.00303443
-0.00341653
0.0032592
-0.00360655
0.00347276
-0.00375811
0.00367451
-0.00387386
0.0038637
-0.00395143
0.00404342
-0.00400055
-0.00402246
0.00421037
0.000228712
0.000300943
0.000310303
0.000182345
0.000403947
4.64594e-05
0.000510093
-0.000107177
0.000629216
-0.000279024
0.000761835
-0.00046957
0.000908502
-0.000679282
0.00106974
-0.000908462
0.00124593
-0.001157
0.00143709
-0.00142398
0.00164264
-0.00170728
0.00186116
-0.00200312
0.00209023
-0.00230585
0.00232644
-0.00260804
0.00256558
-0.002901
0.00280308
-0.00317563
0.0030346
-0.00342374
0.00325644
-0.00363837
0.00346612
-0.00381622
0.00366224
-0.00395423
0.00384513
-0.00405675
0.00401505
-0.00412135
0.00417575
-0.00416126
-0.0041715
0.00432479
0.000337838
0.000220803
0.00042969
9.04928e-05
0.000533682
-5.75321e-05
0.000650264
-0.000223759
0.000779945
-0.000408705
0.000923291
-0.000612916
0.00108088
-0.000836869
0.00125318
-0.00108077
0.0014404
-0.00134421
0.00164216
-0.00162574
0.0018573
-0.00192242
0.00208361
-0.00222944
0.00231779
-0.00254004
0.0025556
-0.00284584
0.00279224
-0.00313765
0.00302295
-0.00340633
0.00324358
-0.00364437
0.00345108
-0.00384587
0.00364386
-0.00400901
0.00382159
-0.00413196
0.00398555
-0.00422071
0.00413697
-0.00427277
0.00428004
-0.00430433
-0.00430463
0.00441317
0.000441576
0.000131259
0.000542965
-1.08965e-05
0.000656642
-0.00017121
0.000783108
-0.000350224
0.000922937
-0.000548534
0.00107675
-0.000766728
0.00124511
-0.00100523
0.00142835
-0.00126401
0.00162634
-0.00154219
0.00183814
-0.00183754
0.00206179
-0.00214608
0.00229418
-0.00246182
0.00253109
-0.00277695
0.00276757
-0.00308233
0.00299852
-0.00336859
0.00321929
-0.0036271
0.00342632
-0.0038514
0.00361749
-0.00403704
0.00379229
-0.0041838
0.00395149
-0.00429115
0.00409723
-0.00436646
0.0042316
-0.00440714
0.00435897
-0.0044317
-0.00442416
0.00447851
0.000539504
3.29542e-05
0.000649862
-0.000121255
0.000772774
-0.000294121
0.000908825
-0.000486275
0.00105867
-0.000698378
0.00122295
-0.000931004
0.00140212
-0.0011844
0.00159623
-0.00145813
0.00180461
-0.00175057
0.00202555
-0.00205848
0.00225615
-0.00237668
0.00249231
-0.00269798
0.00272901
-0.00301365
0.00296087
-0.00331419
0.00318281
-0.00359053
0.00339072
-0.00383501
0.00358196
-0.00404265
0.00375555
-0.00421063
0.0039121
-0.00434036
0.00405342
-0.00443248
0.00418238
-0.00449542
0.00430167
-0.00452642
0.00441561
-0.00454565
-0.00453255
0.004524
0.000631547
-7.36348e-05
0.000750519
-0.000240227
0.000882475
-0.000426077
0.0010281
-0.000631897
0.00118809
-0.000858367
0.00136301
-0.00110593
0.0015531
-0.00137448
0.00175787
-0.00166291
0.00197592
-0.00196861
0.00220457
-0.00228713
0.0024399
-0.00261201
0.00267692
-0.002935
0.00291005
-0.00324678
0.00313383
-0.00353797
0.00334365
-0.00380035
0.0035363
-0.00402765
0.0037103
-0.00421665
0.00386589
-0.00436622
0.00400477
-0.00447923
0.0041296
-0.00455731
0.00424374
-0.00460957
0.00435023
-0.00463291
0.00445317
-0.00464859
-0.00463214
0.00455277
0.000717991
0.000845485
-0.000367721
0.000986575
-0.000567167
0.00114201
-0.000787336
0.00131247
-0.00102882
0.00149829
-0.00129176
0.00169924
-0.00157543
0.00191413
-0.0018778
0.00214057
-0.00219505
0.00237484
-0.0025214
0.00261203
-0.00284921
0.00284649
-0.00316946
0.00307247
-0.00347276
0.00328489
-0.00375038
0.00347997
-0.00399544
0.00365572
-0.0042034
0.00381192
-0.00437285
0.00394998
-0.00450428
0.00407251
-0.00460176
0.00418277
-0.00466757
0.00428438
-0.00471117
0.00438046
-0.00472899
0.00447475
-0.00474289
-0.00472511
0.00456772
0.000935692
-0.000503921
0.00108626
-0.00071774
0.00125196
-0.000953027
0.00143325
-0.00121011
0.00163008
-0.00148859
0.00184149
-0.00178685
0.00206537
-0.00210167
0.00229822
-0.0024279
0.0025353
-0.00275848
0.00277094
-0.00308485
0.00299919
-0.00339771
0.00321457
-0.00368814
0.00341281
-0.00394862
0.00359133
-0.00417396
0.00374944
-0.00436151
0.00388818
-0.00451159
0.00400995
-0.00462605
0.00411801
-0.00470982
0.00421596
-0.00476552
0.00430741
-0.00480263
0.0043954
-0.00481698
0.00448321
-0.00483069
-0.00481329
0.00457139
0.00102239
-0.00064926
0.00118297
-0.000878327
0.0013594
-0.00112946
0.00155177
-0.00140248
0.00175935
-0.00169616
0.00198026
-0.00200776
0.00221128
-0.00233269
0.00244784
-0.00266446
0.00268434
-0.00299498
0.00291471
-0.00331522
0.00313316
-0.00361616
0.00333496
-0.00388994
0.003517
-0.00413065
0.00367804
-0.004335
0.00381872
-0.00450218
0.00394114
-0.00463401
0.00404845
-0.00473336
0.00414426
-0.00480563
0.00423225
-0.00485352
0.00431585
-0.00488623
0.00439785
-0.00489898
0.00448102
-0.00491386
-0.00489819
0.00456592
0.001107
-0.000804349
0.00127819
-0.00104951
0.00146571
-0.00131698
0.00166903
-0.00160581
0.00188654
-0.00191367
0.00211524
-0.00223646
0.0023508
-0.00256825
0.00258773
-0.00290139
0.00281991
-0.00322717
0.00304133
-0.00353664
0.00324686
-0.00382169
0.00343287
-0.00407595
0.00359762
-0.0042954
0.00374125
-0.00447863
0.00386552
-0.00462646
0.00397338
-0.00474186
0.0040684
-0.00482838
0.00415428
-0.00489151
0.0042346
-0.00493383
0.00431241
-0.00496404
0.0043902
-0.00497677
0.00447023
-0.00499389
-0.00498097
0.00455301
0.00119101
0.00137324
-0.00123174
0.00157186
-0.00151559
0.00178546
-0.00181941
0.00201134
-0.00213954
0.00224537
-0.00247049
0.00248221
-0.0028051
0.00271578
-0.00313496
0.00293991
-0.00345129
0.00314912
-0.00374585
0.00333934
-0.00401191
0.0035083
-0.00424491
0.00365565
-0.00444276
0.00378277
-0.00460575
0.00389232
-0.00473601
0.00398774
-0.00483728
0.00407276
-0.0049134
0.00415097
-0.00496973
0.00422564
-0.0050085
0.00429943
-0.00503783
0.00437445
-0.00505179
0.0044525
-0.00507194
-0.00506249
0.00453401
0.00146909
-0.00142514
0.00167827
-0.00172477
0.00190075
-0.0020419
0.00213268
-0.00237147
0.00236889
-0.0027067
0.00260335
-0.00303956
0.0028298
-0.00336141
0.0030425
-0.00366399
0.00323696
-0.00394032
0.00341043
-0.00418538
0.00356206
-0.00439655
0.0036928
-0.00457349
0.00380498
-0.00471793
0.00390186
-0.00483289
0.0039871
-0.00492251
0.00406435
-0.00499065
0.0041369
-0.00504228
0.00420766
-0.00507926
0.00427882
-0.00510899
0.00435218
-0.00512515
0.0044291
-0.00514885
-0.00514333
0.00450994
0.00156613
-0.0016293
0.00178463
-0.00194327
0.00201385
-0.00227112
0.00224882
-0.00260644
0.00248362
-0.0029415
0.00271193
-0.00326787
0.00292781
-0.00357729
0.00312641
-0.00386259
0.00330452
-0.00411842
0.00346079
-0.00434165
0.00359571
-0.00453147
0.00371128
-0.00468906
0.00381051
-0.00481715
0.00389694
-0.00491932
0.00397419
-0.00499977
0.00404568
-0.00506213
0.00411429
-0.0051109
0.00418252
-0.00514748
0.00425212
-0.00517859
0.00432462
-0.00519764
0.00440099
-0.00522523
-0.00522389
0.00448154
0.00166407
0.00188993
-0.00216913
0.00212303
-0.00250422
0.00235757
-0.00284098
0.00258724
-0.00317116
0.00280591
-0.00348655
0.00300843
-0.00377981
0.00319115
-0.00404531
0.00335226
-0.00427952
0.00349178
-0.00448117
0.00361132
-0.00465101
0.00371363
-0.00479136
0.00380207
-0.00490559
0.00388022
-0.00499748
0.00395149
-0.00507104
0.0040189
-0.00512955
0.00408494
-0.00517694
0.00415168
-0.00521423
0.00422051
-0.00524742
0.00429268
-0.00526982
0.00436888
-0.00530142
-0.00530439
0.00444938
0.00199249
-0.00239969
0.00222615
-0.00273788
0.00245661
-0.00307144
0.00267764
-0.00339219
0.00288378
-0.00369269
0.00307099
-0.00396703
0.00323701
-0.00421133
0.0033814
-0.00442391
0.00350535
-0.00460513
0.0036113
-0.00475697
0.00370244
-0.0048825
0.00378223
-0.00498539
0.00385409
-0.00506933
0.00392106
-0.00513801
0.00398577
-0.00519426
0.00405027
-0.00524144
0.00411629
-0.00528024
0.00418485
-0.00531598
0.00425706
-0.00534203
0.00433328
-0.00537764
-0.00538495
0.00441384
0.00209023
-0.0026318
0.00232089
-0.00296855
0.00254378
-0.00329434
0.0027532
-0.00360161
0.00294472
-0.00388421
0.00311562
-0.00413793
0.00326502
-0.00436072
0.0033937
-0.00455258
0.00350375
-0.00471518
0.00359814
-0.00485135
0.00368021
-0.00496457
0.00375332
-0.0050585
0.00382058
-0.00513658
0.00388462
-0.00520205
0.00394767
-0.0052573
0.00401139
-0.00530517
0.00407718
-0.00534603
0.00414579
-0.00538459
0.00421823
-0.00541447
0.00429456
-0.00545398
-0.00546563
0.00437524
0.00218088
0.00240511
-0.00319278
0.00261741
-0.00350663
0.00281299
-0.00379719
0.00298869
-0.00405991
0.00314317
-0.00429241
0.00327678
-0.00449433
0.00339127
-0.00466708
0.00348935
-0.00481326
0.00357422
-0.00493622
0.00364918
-0.00503953
0.00371731
-0.00512663
0.00378135
-0.00520062
0.00384352
-0.00526422
0.00390566
-0.00531944
0.0039691
-0.00536861
0.00403496
-0.00541189
0.00410381
-0.00545343
0.00417654
-0.0054872
0.004253
-0.00553043
-0.00554643
0.0043338
0.00247707
-0.00340752
0.00267642
-0.00370598
0.00285679
-0.00397755
0.00301635
-0.00421948
0.00315504
-0.00443109
0.00327423
-0.00461352
0.00337636
-0.00476921
0.00346445
-0.00490136
0.00354173
-0.0050135
0.00361128
-0.00510907
0.00367583
-0.00519118
0.00373771
-0.0052625
0.00379878
-0.00532529
0.00386052
-0.00538118
0.00392398
-0.00543206
0.00399008
-0.005478
0.00405922
-0.00552257
0.00413225
-0.00556024
0.00420878
-0.00560695
-0.00562734
0.00428969
0.0025356
-0.00361031
0.00272045
-0.00389083
0.00288507
-0.00414217
0.00302892
-0.00436333
0.003153
-0.00455518
0.00325946
-0.00471998
0.00335114
-0.00486088
0.00343115
-0.00498137
0.00350254
-0.0050849
0.00356809
-0.00517462
0.00363015
-0.00525325
0.00369068
-0.00532302
0.00375116
-0.00538578
0.00381282
-0.00544284
0.00387645
-0.0054957
0.00394286
-0.0055444
0.00401227
-0.00559199
0.00408554
-0.00563351
0.00416206
-0.00568347
-0.00570836
0.00424307
0.00258018
0.00274979
-0.00406044
0.00289886
-0.00429125
0.003028
-0.00449246
0.00313902
-0.0046662
0.00323457
-0.00481553
0.00331765
-0.00494396
0.00339126
-0.00505498
0.0034582
-0.00515183
0.00352087
-0.00523729
0.00358127
-0.00531364
0.00364098
-0.00538274
0.00370122
-0.00544601
0.00376296
-0.00550458
0.00382682
-0.00555956
0.00389351
-0.00561108
0.00396313
-0.00566161
0.00403654
-0.00570692
0.00411296
-0.00575989
-0.00578947
0.00419408
0.00276526
-0.00421478
0.00289958
-0.00442557
0.00301537
-0.00460826
0.00311505
-0.00476588
0.00320148
-0.00490196
0.00327763
-0.00502011
0.0033463
-0.00512365
0.00340994
-0.00521547
0.00347059
-0.00529794
0.0035299
-0.00537296
0.00358916
-0.005442
0.00364934
-0.00550619
0.00371122
-0.00556647
0.0037753
-0.00562364
0.0038422
-0.00567798
0.00391192
-0.00573133
0.00398537
-0.00578038
0.0040616
-0.00583611
-0.00587066
0.00414279
0.00276807
0.00288884
-0.00454633
0.00299288
-0.0047123
0.00308293
-0.00485593
0.0031619
-0.00498093
0.00323259
-0.0050908
0.00329749
-0.00518855
0.00335871
-0.00527669
0.00341796
-0.00535719
0.00347658
-0.00543157
0.00353559
-0.00550101
0.00359579
-0.00556638
0.00365781
-0.00562849
0.00372203
-0.00568786
0.00378904
-0.005745
0.00385872
-0.00580101
0.00393213
-0.00585378
0.00400803
-0.00591201
-0.00595189
0.00408925
0.00286834
-0.00465498
0.00296227
-0.00480622
0.00304431
-0.00493797
0.00311728
-0.0050539
0.00318371
-0.00515723
0.00324578
-0.00525062
0.00330525
-0.00533616
0.00336352
-0.00541546
0.00342168
-0.00548972
0.00348055
-0.00555988
0.00354077
-0.0056266
0.00360285
-0.00569058
0.00366713
-0.00575213
0.00373412
-0.00581199
0.00380361
-0.0058705
0.00387687
-0.00592704
0.00395226
-0.00598741
-0.00603308
0.00403345
0.00283973
0.00292511
-0.0048916
0.00300061
-0.00501347
0.00306881
-0.0051221
0.00313196
-0.00522038
0.00319189
-0.00531055
0.00325007
-0.00539434
0.00330763
-0.00547303
0.00336545
-0.00554755
0.0034242
-0.00561863
0.0034844
-0.0056868
0.00354647
-0.00575265
0.0036107
-0.00581636
0.00367752
-0.0058788
0.00374668
-0.00593966
0.00381961
-0.00599997
0.00389423
-0.00606202
-0.00611404
0.00397518
0.00288279
-0.00496987
0.00295299
-0.00508367
0.00301743
-0.00518655
0.00307803
-0.00528098
0.00313634
-0.00536886
0.00319354
-0.00545154
0.00325055
-0.00553004
0.00330809
-0.00560508
0.00336668
-0.00567723
0.00342679
-0.00574691
0.00348874
-0.00581461
0.00355283
-0.00588044
0.00361934
-0.00594531
0.00368808
-0.00600841
0.00376035
-0.00607224
0.00383364
-0.00613531
-0.00619482
0.00391443
0.00283646
0.0029024
-0.00514961
0.00296387
-0.00524802
0.00302248
-0.0053396
0.00307951
-0.00542589
0.00313592
-0.00550795
0.00319246
-0.00558657
0.00324969
-0.00566231
0.00330808
-0.00573561
0.00336799
-0.00580682
0.00342973
-0.00587634
0.00349356
-0.00594428
0.00355968
-0.00601143
0.00362808
-0.0060768
0.00369937
-0.00614353
0.00377005
-0.006206
-0.00627493
0.00385016
0.0028483
-0.00521216
0.00290743
-0.00530715
0.00296449
-0.00539666
0.00302051
-0.0054819
0.00307627
-0.00556371
0.00313237
-0.00564268
0.0031893
-0.00571923
0.00324743
-0.00579375
0.00330709
-0.00586648
0.00336854
-0.0059378
0.00343205
-0.00600778
0.00349775
-0.00607713
0.00356587
-0.00614492
0.00363663
-0.00621429
0.00370813
-0.0062775
-0.0063507
0.0037839
0.0027938
0.002851
-0.00536435
0.00290674
-0.0054524
0.00296184
-0.00553701
0.00301695
-0.00561882
0.00307255
-0.00569828
0.00312906
-0.00577574
0.00318679
-0.00585148
0.00324605
-0.00592574
0.00330707
-0.00599882
0.0033701
-0.0060708
0.00343526
-0.0061423
0.00350285
-0.00621251
0.00357266
-0.0062841
0.00364585
-0.00635069
-0.0064286
0.00372374
0.00279363
0.00284821
-0.00550698
0.00290246
-0.00559126
0.00295691
-0.00567326
0.00301196
-0.00575333
0.00306796
-0.00583174
0.0031252
-0.00590873
0.00318395
-0.00598449
0.00324442
-0.0060593
0.00330685
-0.00613323
0.00337138
-0.00620683
0.00343827
-0.0062794
0.00350756
-0.00635339
0.0035799
-0.00642303
-0.00650343
0.00365474
0.00278904
-0.0055605
0.00284245
-0.00564468
0.0028962
-0.00572701
0.00295062
-0.00580776
0.00300602
-0.00588714
0.00306267
-0.00596537
0.00312079
-0.00604261
0.00318061
-0.00611911
0.00324234
-0.00619495
0.00330611
-0.00627061
0.00337222
-0.00634551
0.00344065
-0.00642182
0.00351206
-0.00649443
-0.00657751
0.00358614
0.00272931
0.00278187
-0.00569724
0.00283486
-0.00577999
0.00288857
-0.00586147
0.00294328
-0.00594185
0.00299922
-0.00602131
0.00305662
-0.00610001
0.00311567
-0.00617817
0.00317659
-0.00625586
0.00323951
-0.00633353
0.00330468
-0.00641068
0.00337214
-0.00648928
0.00344243
-0.00656473
-0.00665001
0.00351493
0.00272074
0.0027729
-0.00583216
0.00282582
-0.00591439
0.00287974
-0.00599577
0.00293488
-0.00607645
0.00299145
-0.00615658
0.00304963
-0.00623635
0.00310962
-0.00631586
0.00317157
-0.00639547
0.00323571
-0.00647482
0.00330205
-0.00655562
0.00337108
-0.00663376
-0.00672121
0.00344228
0.00271035
0.00276239
-0.00596643
0.00281543
-0.00604881
0.00286966
-0.00613069
0.0029253
-0.00621221
0.00298251
-0.00629356
0.00304148
-0.00637483
0.00310236
-0.00645635
0.00316534
-0.00653781
0.00323046
-0.00662073
0.00329815
-0.00670145
-0.00679093
0.00336787
0.00269828
0.00275034
-0.00610087
0.00280359
-0.00618393
0.00285819
-0.00626682
0.00291434
-0.0063497
0.00297219
-0.00643268
0.00303189
-0.00651604
0.00309362
-0.00659955
0.00315741
-0.00668452
0.00322367
-0.0067677
-0.00685913
0.00329187
0.00268451
-0.00615186
0.00273667
-0.00623608
0.00279015
-0.00632031
0.00284514
-0.00640469
0.00290178
-0.00648932
0.0029602
-0.00657447
0.0030206
-0.00665995
0.00308297
-0.00674689
0.0031477
-0.00683244
-0.00692574
0.00321431
0.00261795
0.00266893
-0.00628706
0.00272121
-0.00637259
0.00277494
-0.00645842
0.00283028
-0.00654466
0.00288734
-0.00663153
0.0029463
-0.00671891
0.00300717
-0.00680775
0.0030703
-0.00689558
-0.00699067
0.00313524
0.00260039
0.00265138
-0.00642357
0.00270377
-0.00651081
0.00275772
-0.0065986
0.00281334
-0.00668715
0.00287078
-0.00677635
0.00293006
-0.00686703
0.00299152
-0.00695703
-0.00705385
0.0030547
0.00258069
0.00263167
-0.00656179
0.00268415
-0.00665108
0.00273824
-0.00674124
0.00279408
-0.00683219
0.00285169
-0.00692465
0.0029114
-0.00701674
-0.00711521
0.00297276
0.00255865
0.00260958
0.00266207
-0.00679372
0.00271623
-0.00688635
0.00277211
-0.00698052
0.00282998
-0.00707462
-0.00717467
0.00288944
0.00258487
0.00263728
-0.00693877
0.00269134
-0.00703458
0.00274732
-0.00713059
-0.00723217
0.00280482
0.00255727
0.00260945
-0.00708676
0.00266346
-0.0071846
-0.00728763
0.00271892
0.00252646
0.00257844
-0.00723657
-0.007341
0.0026318
0.0024923
0.00254351
0.0024923
0.00723657
0.007341
0.00254351
0.00252646
0.00708676
0.00257844
0.0071846
0.00728763
0.0026318
0.00255727
0.00693877
0.00260945
0.00703458
0.00266346
0.00713059
0.00723217
0.00271892
0.00258487
0.00679372
0.00263728
0.00688635
0.00269134
0.00698052
0.00274732
0.00707462
0.00717467
0.00280482
0.00255865
0.00656179
0.00260958
0.00665108
0.00266207
0.00674124
0.00271623
0.00683219
0.00277211
0.00692465
0.00282998
0.00701674
0.00711521
0.00288944
0.00258069
0.00642357
0.00263167
0.00651081
0.00268415
0.0065986
0.00273824
0.00668715
0.00279408
0.00677635
0.00285169
0.00686703
0.0029114
0.00695703
0.00705385
0.00297276
0.00260039
0.00628706
0.00265138
0.00637259
0.00270377
0.00645842
0.00275772
0.00654466
0.00281334
0.00663153
0.00287078
0.0067189
0.00293006
0.00680775
0.00299152
0.00689558
0.00699067
0.0030547
0.00261795
0.00615186
0.00266893
0.00623608
0.00272121
0.00632031
0.00277494
0.00640469
0.00283028
0.00648932
0.00288734
0.00657447
0.0029463
0.00665995
0.00300717
0.00674689
0.0030703
0.00683244
0.00692574
0.00313524
0.00263352
0.0060175
0.00268451
0.00610087
0.00273667
0.00618393
0.00279015
0.00626682
0.00284514
0.0063497
0.00290178
0.00643268
0.0029602
0.00651604
0.0030206
0.00659955
0.00308297
0.00668452
0.0031477
0.0067677
0.00685913
0.00321431
0.00269828
0.00596643
0.00275034
0.00604881
0.00280358
0.00613069
0.00285819
0.00621221
0.00291434
0.00629356
0.00297219
0.00637483
0.00303189
0.00645635
0.00309362
0.00653781
0.00315741
0.00662073
0.00322367
0.00670145
0.00679093
0.00329187
0.00271035
0.00583216
0.00276239
0.00591439
0.00281543
0.00599577
0.00286966
0.00607645
0.0029253
0.00615658
0.00298251
0.00623635
0.00304148
0.00631585
0.00310236
0.00639547
0.00316534
0.00647482
0.00323046
0.00655562
0.00329815
0.00663376
0.00672121
0.00336786
0.00272074
0.00569724
0.0027729
0.00577999
0.00282582
0.00586147
0.00287974
0.00594185
0.00293488
0.00602131
0.00299145
0.00610001
0.00304963
0.00617816
0.00310962
0.00625586
0.00317157
0.00633353
0.00323571
0.00641068
0.00330205
0.00648928
0.00337108
0.00656473
0.00665001
0.00344228
0.0027293
0.0055605
0.00278187
0.00564468
0.00283486
0.00572701
0.00288857
0.00580776
0.00294328
0.00588714
0.00299922
0.00596537
0.00305662
0.00604261
0.00311567
0.00611911
0.00317659
0.00619495
0.0032395
0.00627061
0.00330468
0.00634551
0.00337214
0.00642182
0.00344243
0.00649443
0.00657751
0.00351493
0.00278904
0.00550698
0.00284245
0.00559126
0.0028962
0.00567326
0.00295062
0.00575333
0.00300602
0.00583174
0.00306267
0.00590873
0.00312079
0.00598449
0.00318061
0.00605929
0.00324234
0.00613323
0.00330611
0.00620683
0.00337222
0.0062794
0.00344065
0.00635339
0.00351206
0.00642302
0.00650343
0.00358614
0.00279363
0.00536435
0.00284821
0.0054524
0.00290246
0.00553701
0.0029569
0.00561882
0.00301196
0.00569828
0.00306796
0.00577574
0.0031252
0.00585148
0.00318395
0.00592574
0.00324442
0.00599882
0.00330685
0.0060708
0.00337138
0.0061423
0.00343827
0.00621251
0.00350756
0.0062841
0.0035799
0.00635069
0.0064286
0.00365474
0.0027938
0.00521216
0.002851
0.00530715
0.00290674
0.00539666
0.00296184
0.0054819
0.00301695
0.00556371
0.00307255
0.00564268
0.00312906
0.00571923
0.00318679
0.00579374
0.00324605
0.00586648
0.00330707
0.0059378
0.00337009
0.00600778
0.00343526
0.00607713
0.00350285
0.00614492
0.00357266
0.00621429
0.00364585
0.0062775
0.0063507
0.00372374
0.0028483
0.00514961
0.00290743
0.00524802
0.00296449
0.0053396
0.00302051
0.00542589
0.00307627
0.00550795
0.00313237
0.00558657
0.0031893
0.00566231
0.00324743
0.00573561
0.00330709
0.00580682
0.00336854
0.00587634
0.00343205
0.00594428
0.00349775
0.00601143
0.00356587
0.0060768
0.00363663
0.00614353
0.00370813
0.006206
0.00627493
0.0037839
0.00283646
0.00496987
0.0029024
0.00508367
0.00296387
0.00518655
0.00302248
0.00528098
0.00307951
0.00536886
0.00313592
0.00545154
0.00319246
0.00553004
0.00324969
0.00560508
0.00330807
0.00567723
0.00336799
0.00574691
0.00342973
0.0058146
0.00349356
0.00588044
0.00355968
0.00594531
0.00362808
0.00600841
0.00369937
0.00607224
0.00377005
0.00613531
0.00619482