/*--------------------------------*- C++ -*----------------------------------*\
  =========                 |
  \\      /  F ield         | OpenFOAM: The Open Source CFD Toolbox
   \\    /   O peration     | Website:  https://openfoam.org
    \\  /    A nd           | Version:  7
     \\/     M anipulation  |
\*---------------------------------------------------------------------------*/
FoamFile
{
    version     2.0;
    format      ascii;
    class       volVectorField;
    location    "5";
    object      U;
}
// * * * * * * * * * * * * * * * * * * * * * * * * * * * * * * * * * * * * * //

dimensions      [0 1 -1 0 0 0 0];

internalField   nonuniform List<vector> 
24200
(
(-0.438019 0.00568847 4.95248e-21)
(-0.460918 0.0052876 4.89482e-21)
(-0.481465 0.00479744 2.37086e-21)
(-0.499404 0.00421229 1.92918e-21)
(-0.514467 0.00352713 -3.81783e-21)
(-0.526384 0.00273772 1.03776e-21)
(-0.534883 0.00184068 -3.74878e-21)
(-0.539693 0.000833661 2.97336e-21)
(-0.54055 -0.000284338 3.20037e-21)
(-0.537198 -0.00151248 -9.16873e-23)
(-0.529395 -0.00284722 1.90258e-22)
(-0.516922 -0.00428156 1.07743e-21)
(-0.49961 -0.00580334 1.0678e-21)
(-0.477338 -0.00739941 -2.21664e-21)
(-0.450042 -0.00904529 -1.21391e-22)
(-0.417742 -0.010712 -2.63916e-21)
(-0.380559 -0.0123651 -3.90475e-21)
(-0.338723 -0.0139663 2.28763e-21)
(-0.292577 -0.0154741 8.86493e-22)
(-0.242575 -0.0168492 5.31135e-22)
(-0.189267 -0.018054 5.69107e-22)
(-0.133285 -0.019061 5.3029e-22)
(-0.0753219 -0.0198485 2.07267e-22)
(-0.0159861 -0.0204293 -1.45429e-22)
(0.043789 -0.0207636 6.27714e-23)
(0.104397 -0.0210391 2.65938e-23)
(-0.433002 0.0170079 8.06008e-21)
(-0.455197 0.0158039 1.34789e-21)
(-0.474987 0.014333 9.56629e-21)
(-0.492115 0.012578 -6.1385e-21)
(-0.506316 0.0105243 1.15967e-20)
(-0.517322 0.00815937 7.80206e-21)
(-0.524864 0.00547344 5.57971e-21)
(-0.528679 0.00245973 2.06707e-21)
(-0.528506 -0.000884504 -4.00657e-21)
(-0.524099 -0.00455652 8.75194e-21)
(-0.515225 -0.00854521 4.57184e-21)
(-0.501673 -0.0128295 -5.92184e-21)
(-0.483288 -0.0173762 -2.28173e-21)
(-0.459958 -0.0221409 9.49802e-21)
(-0.431627 -0.0270522 -8.32315e-22)
(-0.39833 -0.0320235 6.98029e-21)
(-0.3602 -0.0369518 4.54708e-21)
(-0.317479 -0.0417216 -4.63559e-21)
(-0.270525 -0.0462086 -1.09757e-21)
(-0.219805 -0.0502952 3.83461e-22)
(-0.165886 -0.053868 -6.5079e-22)
(-0.10941 -0.0568454 -1.27484e-21)
(-0.0511022 -0.0591587 3.9088e-22)
(0.00845949 -0.0608413 3.12626e-22)
(0.0681497 -0.0617762 4.70668e-23)
(0.128887 -0.0625489 -1.21508e-22)
(-0.423057 0.0281617 -2.73626e-20)
(-0.443868 0.0261508 -1.91151e-20)
(-0.462171 0.0236973 -9.41198e-21)
(-0.477709 0.0207737 -3.09299e-20)
(-0.490223 0.0173562 -1.01314e-20)
(-0.49945 0.0134252 -2.43581e-20)
(-0.505133 0.00896523 -9.31851e-21)
(-0.507016 0.00396601 3.25038e-21)
(-0.504857 -0.00157612 -1.53548e-20)
(-0.498423 -0.00765564 4.89385e-21)
(-0.487502 -0.0142517 -8.85848e-21)
(-0.471902 -0.0213253 4.13e-21)
(-0.45149 -0.0288474 3.95425e-21)
(-0.426176 -0.0367122 -6.50228e-21)
(-0.395925 -0.0448118 9.87134e-21)
(-0.360796 -0.0530032 -1.38545e-20)
(-0.320946 -0.0611154 1.1665e-21)
(-0.276641 -0.0689556 -5.43787e-23)
(-0.228266 -0.0763159 2.26364e-21)
(-0.176313 -0.0830037 -2.17484e-21)
(-0.121378 -0.0888261 -1.45253e-23)
(-0.0641201 -0.0936459 -1.16003e-21)
(-0.00531806 -0.0973444 -9.90152e-22)
(0.0545228 -0.0999777 6.203e-23)
(0.113877 -0.101329 2.02348e-22)
(0.174737 -0.102444 2.53407e-22)
(-0.408365 0.0390447 -6.86669e-21)
(-0.427151 0.0362213 -1.03922e-20)
(-0.443285 0.0327833 -2.13893e-20)
(-0.456515 0.028694 3.90358e-20)
(-0.466589 0.0239221 7.59651e-22)
(-0.473256 0.018442 3.32617e-20)
(-0.476273 0.0122341 2.37521e-20)
(-0.475406 0.00528605 -1.32274e-20)
(-0.470433 -0.00240552 2.4622e-20)
(-0.461149 -0.0108316 -6.80931e-21)
(-0.447367 -0.0199636 1.19369e-20)
(-0.428944 -0.0297449 1.61961e-21)
(-0.405767 -0.0401331 5.01686e-21)
(-0.377766 -0.0509819 -1.26108e-20)
(-0.344954 -0.0621429 -7.68354e-21)
(-0.307422 -0.0734174 7.89185e-21)
(-0.26536 -0.0845671 6.88351e-21)
(-0.219066 -0.0953219 -1.02343e-20)
(-0.168964 -0.10539 7.02375e-21)
(-0.115572 -0.114514 1.55857e-21)
(-0.0595258 -0.122401 2.00321e-21)
(-0.00150072 -0.128867 5.80562e-21)
(0.057639 -0.133749 -1.02055e-21)
(0.117552 -0.13713 -6.2841e-22)
(0.176093 -0.138654 -1.05482e-21)
(0.236839 -0.139881 -5.29323e-22)
(-0.389181 0.0495573 -1.01778e-21)
(-0.405363 0.0459154 2.42542e-20)
(-0.418718 0.0414925 1.65339e-20)
(-0.429005 0.0362443 -7.32289e-21)
(-0.435983 0.0301335 -1.88497e-20)
(-0.439422 0.0231306 1.23814e-20)
(-0.4391 0.015214 -6.44657e-21)
(-0.434813 0.00637103 -5.11824e-21)
(-0.426371 -0.00339989 1.30109e-20)
(-0.413606 -0.0140848 1.13799e-21)
(-0.396367 -0.0256485 5.21575e-21)
(-0.374561 -0.0380274 -8.20109e-21)
(-0.348115 -0.0511282 -2.10406e-20)
(-0.316995 -0.0648025 -8.94041e-21)
(-0.28126 -0.0788536 -6.34885e-22)
(-0.24104 -0.0930276 3.9871e-21)
(-0.196566 -0.107022 -1.48381e-20)
(-0.148172 -0.120489 8.26366e-21)
(-0.0963372 -0.133055 -1.66742e-21)
(-0.0415959 -0.144401 6.62218e-21)
(0.0153702 -0.154113 -7.98052e-21)
(0.0738693 -0.161995 2.77598e-21)
(0.132914 -0.167832 -4.26367e-21)
(0.192455 -0.171719 4.62248e-22)
(0.24952 -0.173171 9.47341e-22)
(0.309669 -0.174243 3.32446e-23)
(-0.378903 0.055143 7.44313e-22)
(-0.388955 0.0497378 -2.31449e-20)
(-0.395763 0.0433426 -7.62897e-21)
(-0.399108 0.0359164 2.26524e-21)
(-0.398784 0.0274282 -5.64629e-20)
(-0.394602 0.0178565 -3.01426e-20)
(-0.386394 0.00719039 2.53725e-20)
(-0.374014 -0.00456788 -3.54877e-20)
(-0.357338 -0.0173956 -6.97671e-21)
(-0.336266 -0.0312435 -4.34833e-20)
(-0.31075 -0.0460706 -1.2047e-20)
(-0.280767 -0.0617176 3.96301e-20)
(-0.246334 -0.0780254 3.72191e-20)
(-0.207553 -0.0947589 9.42494e-22)
(-0.164598 -0.111612 1.03986e-21)
(-0.117744 -0.128223 -8.31764e-21)
(-0.0673675 -0.144167 -1.75698e-20)
(-0.0140049 -0.158997 3.65872e-21)
(0.0417906 -0.172263 -2.00083e-20)
(0.0992931 -0.183561 8.9975e-21)
(0.157787 -0.192609 1.14988e-21)
(0.216142 -0.199154 -2.84855e-21)
(0.274711 -0.203287 -5.00834e-21)
(0.329553 -0.204452 1.8901e-21)
(0.388426 -0.205088 1.12671e-21)
(-0.348239 0.0638247 2.89174e-20)
(-0.354559 0.0574445 3.33691e-20)
(-0.357464 0.0499211 4.44985e-20)
(-0.356763 0.0412124 3.72601e-20)
(-0.352283 0.0312882 5.14377e-20)
(-0.343876 0.0201295 4.37585e-20)
(-0.331418 0.00772933 1.15969e-20)
(-0.314812 -0.00590469 9.89686e-21)
(-0.293982 -0.0207421 -2.57037e-20)
(-0.268901 -0.0367295 1.40936e-20)
(-0.239558 -0.0538067 2.1438e-20)
(-0.205966 -0.0717988 -3.07569e-21)
(-0.168214 -0.0905207 -3.28576e-20)
(-0.12644 -0.109704 -3.4452e-21)
(-0.0808684 -0.12899 1.29835e-20)
(-0.0318179 -0.147962 2.82078e-21)
(0.0202862 -0.166109 3.52978e-21)
(0.0748837 -0.182921 1.07185e-20)
(0.131336 -0.197831 6.32906e-21)
(0.188861 -0.210446 -6.55821e-21)
(0.246806 -0.220379 3.96284e-21)
(0.303823 -0.22737 3.87463e-21)
(0.360742 -0.231485 8.29116e-22)
(0.412626 -0.23218 -6.89722e-21)
(0.469426 -0.232098 -1.12763e-21)
(-0.313888 0.071892 -5.15593e-20)
(-0.316148 0.0645501 -3.86092e-20)
(-0.314839 0.0559256 -6.03689e-20)
(-0.309805 0.0459772 -3.52017e-20)
(-0.300915 0.0346784 -1.93891e-20)
(-0.288069 0.0220146 1.63237e-20)
(-0.271193 0.00798478 -1.71382e-20)
(-0.250242 -0.00739635 -5.30282e-21)
(-0.225196 -0.0240913 -2.285e-20)
(-0.196081 -0.0420582 7.85722e-21)
(-0.162935 -0.0611738 -4.52588e-21)
(-0.125823 -0.0812922 -1.64388e-20)
(-0.0848778 -0.102194 2.24835e-20)
(-0.0402789 -0.123579 6.32376e-20)
(0.00770014 -0.145036 -1.06244e-20)
(0.0586975 -0.166083 2.81909e-20)
(0.112233 -0.186144 -1.54751e-21)
(0.167686 -0.20463 -1.08648e-21)
(0.224369 -0.220928 9.32109e-21)
(0.281413 -0.234546 -1.06721e-20)
(0.338233 -0.245055 -9.58893e-21)
(0.393264 -0.252225 -9.41669e-21)
(0.447828 -0.256055 7.33677e-21)
(0.496087 -0.256129 1.22493e-21)
(0.549962 -0.25506 4.61509e-21)
(-0.276403 0.0792873 -3.84499e-20)
(-0.274372 0.0710039 4.1919e-20)
(-0.268649 0.0613136 7.68781e-20)
(-0.259118 0.0501785 5.7953e-20)
(-0.245696 0.0375776 8.19701e-21)
(-0.228333 0.0235028 -1.48081e-20)
(-0.207009 0.00795999 3.35391e-20)
(-0.181732 -0.00902861 3.62252e-20)
(-0.152543 -0.0274211 6.26276e-20)
(-0.119505 -0.0471655 -7.13838e-20)
(-0.0827003 -0.068127 -4.67932e-20)
(-0.0422432 -0.0901518 4.78011e-20)
(0.00169419 -0.112996 -5.38007e-20)
(0.0488945 -0.136321 -5.51662e-20)
(0.0990446 -0.159679 -1.74898e-20)
(0.151713 -0.182514 -5.50583e-20)
(0.206362 -0.204198 -7.66512e-21)
(0.262299 -0.224053 -3.62144e-21)
(0.318777 -0.241406 -1.50744e-20)
(0.374835 -0.255707 1.77962e-20)
(0.429951 -0.266475 -2.52498e-20)
(0.482373 -0.273551 1.71391e-20)
(0.533873 -0.276833 -1.01671e-20)
(0.577925 -0.276162 -1.94849e-21)
(0.628024 -0.273862 1.52949e-21)
(-0.236352 0.0859626 3.36852e-20)
(-0.229898 0.0767651 4.07787e-21)
(-0.219663 0.066053 -1.64679e-20)
(-0.205581 0.0537934 -6.19376e-20)
(-0.187619 0.0399727 -2.34267e-20)
(-0.16578 0.02459 -4.64428e-20)
(-0.140098 0.00765965 -2.10677e-20)
(-0.110628 -0.0107889 1.86863e-20)
(-0.0774588 -0.03072 -3.56614e-21)
(-0.0406938 -0.0520486 6.43275e-20)
(-0.000448463 -0.0746557 1.03591e-19)
(0.0431262 -0.0983669 -6.30179e-20)
(0.0898304 -0.122919 -1.26211e-20)
(0.139398 -0.147929 -1.50327e-20)
(0.191468 -0.172917 4.1479e-20)
(0.245541 -0.197258 5.93232e-22)
(0.300995 -0.220249 2.9183e-20)
(0.357045 -0.241143 3.97814e-20)
(0.412878 -0.259201 4.05558e-21)
(0.467437 -0.273847 3.14598e-21)
(0.520259 -0.284546 2.86351e-20)
(0.569471 -0.291254 -6.4657e-21)
(0.617211 -0.293739 3.19953e-21)
(0.656563 -0.292224 1.07378e-20)
(0.702079 -0.288497 -6.47953e-21)
(-0.19431 0.0918781 5.84815e-20)
(-0.183386 0.0818011 2.41297e-20)
(-0.168638 0.0701192 -6.3786e-20)
(-0.150048 0.0568049 9.75188e-21)
(-0.127636 0.041854 7.05243e-20)
(-0.101456 0.0252726 -3.50889e-21)
(-0.0715884 0.00708276 -7.25148e-20)
(-0.038138 -0.012682 -7.88629e-20)
(-0.00122257 -0.0339798 -8.79489e-20)
(0.0390294 -0.0567176 -8.24242e-20)
(0.0824714 -0.0807763 -4.94947e-20)
(0.128928 -0.105964 1.68112e-20)
(0.178172 -0.131994 -1.80328e-20)
(0.229889 -0.158453 5.10391e-20)
(0.28365 -0.184797 -7.0777e-20)
(0.338869 -0.210345 2.90686e-20)
(0.394818 -0.234315 -2.31715e-20)
(0.450598 -0.255897 -2.65373e-20)
(0.505319 -0.274293 3.4111e-21)
(0.557843 -0.28893 1.36898e-20)
(0.607764 -0.299231 -1.95113e-20)
(0.653181 -0.305303 6.19538e-21)
(0.696496 -0.306772 -8.23122e-21)
(0.730742 -0.304346 -3.48276e-21)
(0.770969 -0.299067 -8.24322e-21)
(-0.15084 0.0970008 -4.85501e-20)
(-0.135481 0.0860853 -8.98508e-20)
(-0.116297 0.0734923 5.91816e-20)
(-0.0933222 0.0591995 -4.1836e-20)
(-0.0666265 0.0432125 -1.75544e-20)
(-0.0363106 0.0255442 -2.84023e-20)
(-0.00249449 0.00622175 1.5143e-19)
(0.0346858 -0.0147195 1.50248e-20)
(0.0750894 -0.037222 5.93695e-20)
(0.118574 -0.0612026 2.03032e-20)
(0.164976 -0.0865317 -3.07911e-21)
(0.214103 -0.113001 2.99588e-20)
(0.26569 -0.140295 6.79099e-20)
(0.319365 -0.167959 -9.1109e-21)
(0.374607 -0.195387 5.17449e-20)
(0.430712 -0.221829 2.77196e-20)
(0.486822 -0.24643 -1.12707e-20)
(0.541909 -0.268328 1.62043e-20)
(0.595002 -0.286682 2.00274e-22)
(0.644915 -0.300948 -1.43991e-20)
(0.691308 -0.310533 1.85901e-21)
(0.73236 -0.315726 -2.36299e-22)
(0.770647 -0.31601 2.40174e-20)
(0.79948 -0.312641 -1.5405e-20)
(0.833861 -0.305772 1.9712e-20)
(-0.106488 0.101303 1.17649e-19)
(-0.0867937 0.0895956 9.46834e-21)
(-0.0633184 0.0761548 4.21706e-21)
(-0.0361441 0.0609637 -3.7869e-20)
(-0.00538498 0.0440363 1.8275e-20)
(0.028819 0.0253919 -5.42114e-20)
(0.0663201 0.00506115 -9.27146e-20)
(0.106966 -0.0169175 -9.23235e-21)
(0.150607 -0.040484 4.94826e-21)
(0.197096 -0.0655541 -1.55118e-20)
(0.246264 -0.0919868 2.27978e-20)
(0.297893 -0.119554 -7.13239e-20)
(0.351671 -0.147903 -5.51887e-20)
(0.407138 -0.176527 4.71805e-21)
(0.46365 -0.204752 -1.97382e-20)
(0.520353 -0.231757 1.67805e-20)
(0.576234 -0.25662 -2.5167e-20)
(0.630131 -0.278443 -1.53248e-20)
(0.68101 -0.296367 -2.12842e-20)
(0.727685 -0.30991 1.73576e-20)
(0.769915 -0.318491 2.55547e-20)
(0.806068 -0.322604 3.81604e-20)
(0.838826 -0.3216 -6.65429e-21)
(0.862051 -0.317305 9.70272e-21)
(0.89023 -0.308904 -1.64721e-20)
(-0.0617691 0.10476 -1.26848e-19)
(-0.0378951 0.0923131 -5.90579e-20)
(-0.01032 0.0780879 1.01364e-19)
(0.020827 0.0620814 6.74408e-20)
(0.0553991 0.044309 7.67305e-20)
(0.0932292 0.0247956 4.99862e-20)
(0.134156 0.00357329 9.00929e-20)
(0.178025 -0.0193172 2.82627e-20)
(0.224693 -0.0438176 -2.65985e-20)
(0.274015 -0.0698361 2.27732e-20)
(0.325813 -0.0972169 9.08678e-20)
(0.379832 -0.125703 2.48368e-20)
(0.435683 -0.154894 1.02876e-19)
(0.492782 -0.184222 -7.01671e-20)
(0.550323 -0.212938 -3.7915e-20)
(0.607265 -0.24015 -2.72072e-20)
(0.662431 -0.264883 3.48574e-21)
(0.714543 -0.286232 7.90113e-20)
(0.762545 -0.303346 -7.24955e-21)
(0.805318 -0.315845 -9.58426e-22)
(0.84277 -0.323187 -4.24109e-20)
(0.87356 -0.326081 -3.5657e-20)
(0.900431 -0.323766 -2.43671e-20)
(0.91799 -0.318614 3.05703e-22)
(0.939846 -0.308831 7.09659e-21)
(-0.0171571 0.107349 7.2225e-20)
(0.0107012 0.0942167 1.79676e-19)
(0.042152 0.0792748 -1.99371e-19)
(0.0770281 0.0625338 -8.69775e-20)
(0.115159 0.0440089 -9.4648e-20)
(0.156367 0.0237273 -6.95715e-20)
(0.200495 0.00172126 -2.06819e-20)
(0.247399 -0.0219688 4.88728e-20)
(0.296951 -0.0472824 -5.56131e-20)
(0.349007 -0.0741172 1.15705e-20)
(0.403368 -0.102294 -9.82831e-21)
(0.459712 -0.131516 2.06142e-20)
(0.517531 -0.161324 -6.05179e-20)
(0.576068 -0.191076 4.83932e-20)
(0.634313 -0.219946 3.87188e-20)
(0.691022 -0.246985 -3.04122e-20)
(0.744863 -0.271185 2.01253e-20)
(0.794488 -0.291664 -5.09342e-20)
(0.838884 -0.307625 2.03556e-20)
(0.877087 -0.31881 -1.62925e-20)
(0.909215 -0.324753 -3.77924e-21)
(0.934293 -0.326369 3.75468e-20)
(0.955101 -0.322801 -2.14566e-20)
(0.967094 -0.316916 8.81393e-22)
(0.982753 -0.305977 1.34422e-20)
(0.0585513 0.0952857 -8.362e-20)
(0.0936423 0.0796976 9.29878e-20)
(0.132008 0.0622995 1.49069e-19)
(0.173467 0.0431088 4.85393e-20)
(0.217851 0.0221525 9.79709e-20)
(0.265017 -0.000538828 3.03944e-20)
(0.314846 -0.0249243 2.55607e-20)
(0.367224 -0.0509374 1.26423e-19)
(0.421998 -0.0784581 3.89574e-20)
(0.478911 -0.107273 -7.53574e-20)
(0.537531 -0.137031 4.93832e-20)
(0.597174 -0.167202 -4.01727e-20)
(0.656865 -0.197066 -4.31775e-20)
(0.715358 -0.225726 -7.53747e-21)
(0.77121 -0.252195 7.7693e-20)
(0.822979 -0.275462 2.47484e-23)
(0.869322 -0.29471 -1.35856e-20)
(0.909363 -0.309229 -8.06282e-21)
(0.942381 -0.318912 6.49818e-20)
(0.968764 -0.323383 -2.16356e-20)
(0.987943 -0.323747 -3.16071e-20)
(1.00273 -0.319063 -2.67566e-20)
(1.00942 -0.312615 3.13513e-20)
(1.01924 -0.300798 1.50861e-20)
(0.105292 0.095503 -1.56651e-19)
(0.143801 0.0793348 -1.21286e-20)
(0.185447 0.061354 -9.7888e-20)
(0.230057 0.0415793 8.93868e-20)
(0.277483 0.0200349 -5.54488e-20)
(0.327614 -0.0032496 -5.77383e-20)
(0.380354 -0.0282304 -1.38761e-19)
(0.435589 -0.0548283 -1.17638e-19)
(0.493124 -0.0828953 -1.11134e-20)
(0.552599 -0.11217 -2.0528e-20)
(0.613409 -0.142236 -6.06437e-21)
(0.674638 -0.172482 3.10318e-20)
(0.735047 -0.202113 8.25558e-21)
(0.793155 -0.230177 -8.18423e-20)
(0.84736 -0.255677 -8.92087e-20)
(0.896192 -0.277642 2.54298e-20)
(0.938416 -0.295356 2.91277e-20)
(0.973396 -0.30823 -1.0189e-20)
(1.00073 -0.316317 -1.83054e-20)
(1.02113 -0.319338 5.7481e-20)
(1.03443 -0.31856 2.11651e-20)
(1.04344 -0.31296 1.13803e-20)
(1.04525 -0.306151 1.4011e-21)
(1.0498 -0.293759 -2.07948e-20)
(0.15066 0.0948519 5.42952e-20)
(0.192403 0.0781669 1.01816e-19)
(0.237178 0.0596753 -6.72727e-20)
(0.284836 0.0393937 -1.54445e-20)
(0.335268 0.0173443 -5.2388e-20)
(0.38839 -0.00644277 -5.66142e-20)
(0.444121 -0.0319153 7.68903e-20)
(0.502314 -0.0589721 9.96817e-20)
(0.562679 -0.0874247 1.94751e-20)
(0.624689 -0.116951 4.41232e-20)
(0.687495 -0.147057 -3.65653e-20)
(0.749901 -0.177054 -5.23912e-20)
(0.810393 -0.206081 2.16085e-20)
(0.86729 -0.23316 1.74599e-19)
(0.918914 -0.25732 3.88445e-20)
(0.963882 -0.277674 2.21078e-20)
(1.00119 -0.293638 -7.2918e-20)
(1.03052 -0.304763 5.24543e-20)
(1.05187 -0.311262 -1.37789e-20)
(1.06626 -0.312946 -5.4558e-20)
(1.0739 -0.311201 -7.04725e-21)
(1.0776 -0.304923 -1.71204e-20)
(1.07508 -0.297972 -2.96486e-20)
(1.07505 -0.2853 -6.12937e-21)
(0.194509 0.0933206 4.28031e-20)
(0.239363 0.0761817 -3.72956e-22)
(0.287198 0.0572488 1.16873e-20)
(0.337905 0.0365366 -3.90937e-20)
(0.39141 0.0140664 4.26149e-20)
(0.447652 -0.0101265 5.51757e-20)
(0.506527 -0.0359738 -3.6113e-20)
(0.567804 -0.0633411 -9.37235e-20)
(0.631028 -0.0919866 2.86293e-20)
(0.695428 -0.121518 -7.25413e-20)
(0.759856 -0.15136 1.73549e-20)
(0.822808 -0.180754 -7.36262e-20)
(0.882527 -0.208799 5.68641e-20)
(0.937215 -0.234527 -1.19598e-19)
(0.985241 -0.257036 4.05038e-20)
(1.02544 -0.275555 -2.00517e-20)
(1.05714 -0.289656 3.72741e-20)
(1.08045 -0.299037 -1.94251e-20)
(1.09574 -0.304053 -3.25126e-20)
(1.10434 -0.304581 3.22487e-20)
(1.10676 -0.302093 5.43336e-20)
(1.10575 -0.29539 2.90633e-20)
(1.09954 -0.288507 4.14521e-21)
(1.09571 -0.275824 3.26995e-21)
(0.23683 0.0909071 -5.49306e-20)
(0.284759 0.0733781 -6.0038e-20)
(0.335689 0.0540755 6.39168e-20)
(0.389552 0.0330132 9.33587e-20)
(0.446303 0.0102152 1.14759e-19)
(0.505869 -0.0142718 -4.80855e-22)
(0.568068 -0.0403533 -8.21341e-20)
(0.632513 -0.0678503 7.88993e-20)
(0.698503 -0.0964575 2.04239e-21)
(0.764952 -0.125707 -1.00256e-20)
(0.830381 -0.154951 7.23538e-20)
(0.893001 -0.183381 7.03486e-20)
(0.950894 -0.21009 -4.90147e-20)
(1.00227 -0.234157 -1.57954e-20)
(1.04569 -0.254789 1.58602e-20)
(1.08034 -0.271356 -8.13945e-21)
(1.10598 -0.283592 3.72942e-20)
(1.12312 -0.291331 5.8485e-20)
(1.13252 -0.295044 4.87983e-20)
(1.13577 -0.294647 -4.61689e-20)
(1.13357 -0.291656 -5.38703e-20)
(1.12857 -0.284773 -1.29058e-20)
(1.11936 -0.278148 -1.66508e-21)
(1.1125 -0.265676 -9.16924e-23)
(0.277764 0.0876248 1.65001e-19)
(0.328836 0.0697747 7.83927e-20)
(0.383007 0.0501815 5.73958e-20)
(0.440242 0.0288611 -1.86408e-20)
(0.500489 0.00584515 -5.25538e-20)
(0.56361 -0.0188 -1.49441e-20)
(0.62927 -0.0449435 3.56844e-20)
(0.696837 -0.0723522 6.67483e-20)
(0.765289 -0.100653 -1.03563e-19)
(0.833184 -0.129306 2.07785e-20)
(0.898722 -0.157609 -7.8552e-21)
(0.959909 -0.184733 -7.12255e-20)
(1.01479 -0.209803 -4.80116e-22)
(1.06175 -0.231986 8.11474e-20)
(1.09969 -0.250621 -9.63228e-20)
(1.12823 -0.265231 -1.83542e-20)
(1.1476 -0.275701 -3.58546e-20)
(1.15872 -0.281981 -3.50693e-20)
(1.16265 -0.28462 -2.44676e-20)
(1.16116 -0.283548 8.82055e-20)
(1.15503 -0.28029 4.6021e-21)
(1.1468 -0.273442 -8.10244e-21)
(1.13526 -0.267229 3.67907e-21)
(1.12611 -0.255138 -1.80027e-20)
(0.372008 0.0654188 -1.55239e-20)
(0.429674 0.0456282 -5.31447e-20)
(0.490572 0.0241602 5.59337e-21)
(0.554594 0.00106079 3.89886e-20)
(0.621454 -0.0235755 2.86737e-20)
(0.690577 -0.0495737 7.24772e-20)
(0.761001 -0.0766416 -5.51431e-20)
(0.831332 -0.104341 1.10684e-19)
(0.899776 -0.132075 8.27573e-20)
(0.964283 -0.159114 -1.79404e-19)
(1.02278 -0.184643 7.64928e-20)
(1.07346 -0.207855 -6.55329e-20)
(1.11502 -0.228033 -6.21365e-23)
(1.14682 -0.244661 -2.92554e-20)
(1.16898 -0.257412 -6.82988e-21)
(1.18216 -0.266296 5.38643e-21)
(1.18766 -0.271349 1.22978e-20)
(1.18673 -0.273166 -1.6853e-20)
(1.18121 -0.271662 -4.31776e-20)
(1.17192 -0.268347 7.8267e-22)
(1.1612 -0.26171 2.64855e-20)
(1.14795 -0.256024 -4.14034e-21)
(1.13716 -0.24443 1.93073e-20)
(0.414834 0.0603949 -1.32283e-19)
(0.476326 0.0405202 -2.42762e-20)
(0.541208 0.0190401 -9.69538e-20)
(0.609235 -0.00397848 -3.00703e-20)
(0.679881 -0.0284068 4.6144e-20)
(0.752242 -0.0540213 2.58902e-20)
(0.824967 -0.0804734 -1.26264e-20)
(0.896281 -0.107271 -1.13504e-19)
(0.964105 -0.133785 2.55477e-20)
(1.02627 -0.159285 1.55266e-19)
(1.0808 -0.183009 -5.8231e-20)
(1.12619 -0.204245 8.14656e-20)
(1.1616 -0.222407 2.31173e-20)
(1.18691 -0.237122 1.15173e-20)
(1.20272 -0.24819 -2.17431e-20)
(1.21009 -0.255721 3.6274e-22)
(1.21057 -0.259802 2.29177e-20)
(1.20551 -0.261041 -5.5247e-20)
(1.19674 -0.259323 1.29089e-20)
(1.18501 -0.256122 -3.0092e-20)
(1.17248 -0.249827 2.71543e-20)
(1.15808 -0.244743 1.00517e-21)
(1.14618 -0.233718 4.27433e-21)
(0.457978 0.0548306 2.02005e-20)
(0.523653 0.0350105 4.21471e-20)
(0.592793 0.013682 -4.25003e-21)
(0.664915 -0.00906247 3.76664e-20)
(0.739164 -0.0330569 -1.20387e-19)
(0.814234 -0.0580314 -1.72705e-19)
(0.888375 -0.0835904 3.9829e-21)
(0.959488 -0.109208 -8.86764e-20)
(1.02533 -0.134247 7.41296e-20)
(1.08379 -0.158013 -1.21768e-19)
(1.13318 -0.179819 -1.03122e-20)
(1.17243 -0.199068 3.90147e-20)
(1.20125 -0.215302 4.62979e-20)
(1.22004 -0.228275 5.68131e-20)
(1.22984 -0.23789 4.9879e-20)
(1.232 -0.24432 -4.00581e-20)
(1.22818 -0.247678 2.50317e-20)
(1.21977 -0.248559 5.23069e-20)
(1.20851 -0.246807 -1.5461e-20)
(1.19503 -0.24385 4.38281e-20)
(1.18129 -0.237986 -1.51287e-20)
(1.16618 -0.233542 -1.25187e-20)
(1.15363 -0.223117 -1.07563e-20)
(0.50214 0.0488988 -4.73307e-20)
(0.572312 0.0292984 2.6664e-20)
(0.645841 0.00831134 1.45796e-19)
(0.721917 -0.0139435 6.52538e-20)
(0.799275 -0.0372649 1.72834e-19)
(0.87619 -0.061345 6.30149e-20)
(0.950554 -0.0857571 8.79923e-20)
(1.02007 -0.109964 2.14296e-20)
(1.0825 -0.13335 5.0094e-20)
(1.136 -0.155278 9.25976e-20)
(1.1793 -0.175156 -1.56844e-20)
(1.21189 -0.1925 -1.42835e-19)
(1.23403 -0.206971 9.719e-20)
(1.2466 -0.218425 -5.82723e-20)
(1.25096 -0.226837 -4.80998e-20)
(1.24863 -0.232415 7.56072e-20)
(1.24131 -0.235275 -7.51236e-20)
(1.23032 -0.23598 -2.97353e-20)
(1.21727 -0.23433 -1.96295e-20)
(1.20262 -0.231704 1.69569e-20)
(1.18815 -0.226321 -2.36732e-20)
(1.17272 -0.222527 -2.75986e-21)
(1.15983 -0.212706 1.16767e-20)
(0.622818 0.0236214 5.00043e-20)
(0.70064 0.00318311 -3.37329e-19)
(0.780217 -0.0183584 7.66807e-21)
(0.859847 -0.0407742 -7.29515e-20)
(0.93742 -0.0637315 -3.75972e-20)
(1.01059 -0.0867915 -1.87796e-20)
(1.07702 -0.109429 -7.52305e-20)
(1.13471 -0.13107 -2.19996e-19)
(1.1822 -0.151153 2.65611e-21)
(1.21879 -0.169181 -1.09691e-20)
(1.24456 -0.184777 -8.96251e-22)
(1.26027 -0.1977 -1.68838e-19)
(1.26716 -0.207878 3.27e-20)
(1.2668 -0.215334 3.36736e-20)
(1.26079 -0.220285 -5.62687e-20)
(1.25077 -0.222833 4.5818e-21)
(1.23791 -0.223502 4.94281e-20)
(1.22366 -0.222052 -1.37622e-20)
(1.20834 -0.219806 -1.59658e-20)
(1.19352 -0.214927 1.79113e-20)
(1.17803 -0.211769 9.69949e-21)
(1.16506 -0.202535 -4.52953e-20)
(0.675463 0.0182384 -1.05347e-19)
(0.757171 -0.00144071 2.5851e-20)
(0.839448 -0.0220562 -2.75367e-20)
(0.920181 -0.0433628 1.08426e-19)
(0.996981 -0.065018 1.62138e-19)
(1.06743 -0.0865895 1.58409e-19)
(1.12937 -0.107581 2.18013e-19)
(1.18118 -0.127477 1.15983e-19)
(1.22196 -0.145791 -1.24626e-19)
(1.25161 -0.162118 6.62564e-20)
(1.27074 -0.176169 6.89581e-20)
(1.28052 -0.187777 1.71708e-19)
(1.28245 -0.19692 -4.48797e-20)
(1.27819 -0.203643 -5.83382e-20)
(1.26931 -0.208154 -3.90909e-20)
(1.2573 -0.210537 1.961e-20)
(1.24319 -0.211271 6.27443e-20)
(1.22825 -0.21008 -2.28309e-20)
(1.21262 -0.208237 -2.84363e-20)
(1.19775 -0.20386 -3.17946e-20)
(1.18241 -0.20131 9.098e-21)
(1.16952 -0.192634 3.02796e-20)
(0.730231 0.0134072 2.76742e-20)
(0.815072 -0.0053175 -2.80697e-20)
(0.898912 -0.0248264 1.01366e-19)
(0.979321 -0.0448698 1.19713e-20)
(1.05379 -0.0651099 -5.6492e-20)
(1.12004 -0.0851345 -8.01077e-20)
(1.17628 -0.104488 -1.23894e-19)
(1.22142 -0.122713 9.51916e-20)
(1.25517 -0.139399 -1.37328e-19)
(1.27799 -0.154217 7.50087e-20)
(1.29095 -0.166946 2.42184e-21)
(1.2955 -0.177471 -9.2585e-20)
(1.29329 -0.185795 2.55208e-20)
(1.28594 -0.191974 7.97841e-21)
(1.27492 -0.196194 3.0024e-20)
(1.26156 -0.19852 3.51198e-20)
(1.24672 -0.199382 -6.22903e-20)
(1.23146 -0.198484 2.66428e-20)
(1.21583 -0.19704 1.8991e-20)
(1.20111 -0.193153 3.43087e-20)
(1.18604 -0.19117 3.34827e-20)
(1.17335 -0.183019 -1.40019e-20)
(0.873656 -0.00824957 2.05657e-19)
(0.957648 -0.0265216 -1.5227e-19)
(1.03617 -0.0452121 -8.1356e-20)
(1.10679 -0.0639975 -1.90245e-20)
(1.16756 -0.0824931 -2.75199e-20)
(1.2172 -0.100286 -9.77999e-20)
(1.25525 -0.116976 -7.85944e-20)
(1.282 -0.132214 1.73957e-19)
(1.29841 -0.145733 -1.14828e-19)
(1.30588 -0.157358 -1.13209e-19)
(1.30601 -0.16701 9.78198e-20)
(1.30048 -0.174701 9.63132e-22)
(1.2908 -0.180486 -4.48385e-20)
(1.2783 -0.184525 -1.49434e-20)
(1.26411 -0.186868 -2.23405e-20)
(1.24893 -0.187894 5.70968e-20)
(1.23366 -0.1873 -2.62334e-20)
(1.21821 -0.18624 3.06041e-20)
(1.20379 -0.18282 -1.39346e-20)
(1.18909 -0.181359 1.07394e-20)
(1.17667 -0.173695 -3.05045e-20)
(0.931973 -0.0101038 -7.46626e-20)
(1.01455 -0.0270713 1.46819e-19)
(1.08961 -0.0443885 -1.35649e-19)
(1.15503 -0.0617499 3.31692e-20)
(1.20934 -0.0787989 2.19383e-20)
(1.25188 -0.0951621 8.58628e-20)
(1.28279 -0.110487 5.45144e-20)
(1.30291 -0.124473 -3.10645e-21)
(1.31354 -0.136897 9.72369e-20)
(1.3163 -0.147619 1.4355e-19)
(1.31285 -0.156577 2.14474e-21)
(1.30477 -0.163784 3.26283e-20)
(1.29344 -0.16929 6.95046e-20)
(1.28001 -0.173225 -4.83566e-20)
(1.2654 -0.175631 3.33279e-20)
(1.25018 -0.176835 -8.81981e-20)
(1.23509 -0.176544 4.90889e-20)
(1.21998 -0.175841 1.76415e-20)
(1.20594 -0.172863 -9.31229e-21)
(1.19165 -0.171875 -2.43685e-20)
(1.17956 -0.164665 -2.63247e-20)
(0.988923 -0.0108219 -1.62669e-19)
(1.0685 -0.026483 -1.16343e-21)
(1.13868 -0.0424715 -7.6406e-20)
(1.19783 -0.0584979 -1.64736e-19)
(1.24507 -0.0742293 -1.31368e-19)
(1.28037 -0.0893239 -8.7604e-20)
(1.30443 -0.103466 5.90459e-21)
(1.3185 -0.116393 6.28199e-20)
(1.32414 -0.127911 -8.15733e-21)
(1.32303 -0.1379 -1.14656e-19)
(1.31678 -0.14631 -1.04188e-19)
(1.30685 -0.153147 3.59359e-20)
(1.29443 -0.158456 -9.47989e-21)
(1.28048 -0.162337 -1.57484e-20)
(1.26576 -0.164833 1.87871e-20)
(1.25073 -0.166215 1.35882e-20)
(1.23596 -0.166217 -1.68398e-20)
(1.22127 -0.165838 -6.0295e-20)
(1.20767 -0.163278 3.77485e-20)
(1.19382 -0.162711 3.88493e-20)
(1.18207 -0.155929 4.81541e-20)
(1.11848 -0.0248334 -9.14853e-20)
(1.18264 -0.0395904 1.79903e-19)
(1.2348 -0.0544116 1.58169e-19)
(1.27473 -0.0689804 5.09768e-20)
(1.303 -0.0829782 5.69469e-20)
(1.32075 -0.0961163 6.43455e-20)
(1.32952 -0.108158 -1.68285e-19)
(1.33098 -0.118931 -6.42708e-21)
(1.3268 -0.128328 -5.63396e-20)
(1.31847 -0.136303 7.01434e-20)
(1.30726 -0.142855 -3.13716e-20)
(1.2942 -0.148023 -5.31882e-20)
(1.28008 -0.151882 3.726e-20)
(1.26548 -0.154478 -4.20206e-20)
(1.25078 -0.156027 2.51661e-20)
(1.2364 -0.156311 -6.63535e-20)
(1.2222 -0.156218 4.84606e-20)
(1.20905 -0.154057 1.07778e-20)
(1.19564 -0.153856 -1.2111e-20)
(1.18426 -0.147484 -1.54901e-20)
(1.1637 -0.0222507 -1.51121e-19)
(1.22102 -0.0359093 7.12717e-21)
(1.26585 -0.0496769 -8.66323e-20)
(1.29859 -0.0632458 -7.39411e-20)
(1.32029 -0.0763131 9.66708e-20)
(1.33244 -0.0886092 1.27075e-20)
(1.33671 -0.0999161 6.21162e-20)
(1.33481 -0.110077 5.45968e-20)
(1.32828 -0.118991 1.86851e-20)
(1.31848 -0.126615 -5.41829e-20)
(1.30648 -0.132942 -1.92188e-20)
(1.29312 -0.138006 1.37665e-21)
(1.27906 -0.141859 -2.60569e-20)
(1.26472 -0.144559 5.66593e-20)
(1.25045 -0.146259 -1.36012e-20)
(1.23652 -0.146811 1.72472e-20)
(1.22283 -0.146964 2.93842e-20)
(1.21013 -0.145191 -7.86531e-20)
(1.19717 -0.145298 5.48293e-20)
(1.18616 -0.13933 6.91024e-23)
(1.20364 -0.0188942 9.41146e-20)
(1.25366 -0.0316056 5.19556e-21)
(1.29118 -0.0444761 4.67649e-20)
(1.31711 -0.0572011 -7.51299e-20)
(1.3329 -0.0694877 9.80397e-20)
(1.34023 -0.0810806 -2.10821e-19)
(1.34082 -0.0917761 1.30012e-20)
(1.33629 -0.101428 4.43044e-20)
(1.32806 -0.109943 1.69537e-20)
(1.31727 -0.117278 -5.20387e-20)
(1.30485 -0.123422 1.96563e-20)
(1.29145 -0.128405 6.14128e-20)
(1.27761 -0.13226 2.47292e-20)
(1.26365 -0.135058 -4.60893e-20)
(1.24985 -0.136893 2.50618e-20)
(1.23637 -0.137701 3.99431e-22)
(1.22322 -0.138058 -1.58802e-20)
(1.21095 -0.136671 1.01333e-22)
(1.19844 -0.13702 -1.52049e-20)
(1.18781 -0.131469 -7.86204e-20)
(1.28068 -0.026852 -1.91319e-20)
(1.31117 -0.0389736 -9.89457e-21)
(1.3309 -0.050994 1.16649e-19)
(1.34153 -0.0626278 -5.40228e-20)
(1.34484 -0.0736313 1.21899e-19)
(1.3425 -0.0838131 -5.54042e-20)
(1.33601 -0.0930366 2.32798e-20)
(1.32659 -0.101214 -1.48277e-21)
(1.31522 -0.108304 4.93205e-20)
(1.30264 -0.114292 3.22001e-20)
(1.28939 -0.119207 1.52916e-20)
(1.27588 -0.123067 7.03135e-21)
(1.26234 -0.125956 3.4263e-20)
(1.24904 -0.127909 -5.22037e-20)
(1.23602 -0.128963 4.39072e-20)
(1.22341 -0.12948 -5.30555e-20)
(1.21152 -0.128491 2.83608e-20)
(1.19949 -0.129005 -1.21193e-21)
(1.18923 -0.123912 4.55092e-20)
(1.30239 -0.0218036 2.55514e-20)
(1.32639 -0.0333076 8.3834e-20)
(1.34061 -0.0447414 6.67089e-20)
(1.34688 -0.0558266 -1.01031e-19)
(1.34693 -0.0663307 -9.48054e-20)
(1.34234 -0.0760737 6.90493e-20)
(1.33443 -0.0849286 -1.5071e-19)
(1.32425 -0.0928137 2.18652e-20)
(1.31259 -0.09969 -6.54973e-20)
(1.30006 -0.105542 -1.0924e-20)
(1.28707 -0.110396 -5.75089e-20)
(1.27395 -0.114262 -6.60415e-20)
(1.26087 -0.117231 2.71409e-20)
(1.24806 -0.119289 9.50642e-20)
(1.2355 -0.120574 3.54972e-20)
(1.22343 -0.121209 4.67064e-20)
(1.21186 -0.120647 1.39636e-20)
(1.20036 -0.121233 2.57796e-20)
(1.19045 -0.116677 -5.45118e-21)
(1.33744 -0.0275868 9.26361e-22)
(1.34693 -0.0385295 -1.26337e-19)
(1.34959 -0.049148 3.50422e-20)
(1.34708 -0.0592217 -5.10927e-20)
(1.34082 -0.0685827 3.90402e-20)
(1.33194 -0.0771138 1.12304e-19)
(1.32131 -0.08474 -3.90605e-20)
(1.30959 -0.091425 5.11716e-20)
(1.29724 -0.0971544 4.4805e-20)
(1.28459 -0.101951 1.52783e-20)
(1.27189 -0.105821 1.15942e-21)
(1.25928 -0.108858 2.50399e-20)
(1.24695 -0.111012 -6.07054e-20)
(1.23484 -0.112509 -2.19671e-20)
(1.22328 -0.113229 -4.79248e-20)
(1.212 -0.113135 -3.84089e-20)
(1.20109 -0.11367 1.51782e-20)
(1.19144 -0.109791 3.3872e-20)
(1.34497 -0.0218917 4.28382e-20)
(1.35049 -0.0324173 2.76287e-20)
(1.35025 -0.0426317 1.02799e-19)
(1.34579 -0.0523273 -1.59454e-20)
(1.33833 -0.0613492 -3.88186e-20)
(1.32882 -0.0695901 -1.33444e-19)
(1.318 -0.0769824 3.86951e-20)
(1.30636 -0.0834931 -1.37586e-20)
(1.29428 -0.0891093 -9.10659e-21)
(1.28201 -0.0938517 -6.90947e-20)
(1.26976 -0.0977235 9.54526e-22)
(1.25761 -0.100816 -2.77125e-20)
(1.24574 -0.10306 3.69352e-20)
(1.23406 -0.104741 -3.57241e-20)
(1.22296 -0.105528 3.618e-20)
(1.21194 -0.105935 -3.70329e-21)