-0.37194 	0.37194 	1.17961e-17 	0.12095 	0.116398 	7.71776e-20
-0.409303 	0.409303 	7.63278e-18 	0.300148 	0.273334 	-2.14231e-20
-0.448053 	0.448053 	1.35308e-17 	0.444227 	0.377837 	6.92388e-20
-0.488244 	0.488244 	2.56739e-17 	0.556903 	0.44297 	5.61323e-20
-0.529927 	0.529927 	3.33067e-17 	0.646526 	0.477314 	1.46994e-20
-0.573159 	0.573159 	3.88578e-17 	0.716678 	0.488999 	9.26371e-21
-0.617998 	0.617998 	3.19189e-17 	0.771927 	0.484099 	-1.88856e-19
-0.664503 	0.664503 	-7.63278e-18 	0.815276 	0.467949 	-5.07407e-20
