0 	0.525939 	1.249e-17 	0.123134 	0.00261884 	4.99722e-21
0 	0.57878 	1.249e-17 	0.326464 	0.0232096 	-1.12991e-21
0 	0.633585 	1.249e-17 	0.502825 	0.0584684 	-2.40408e-21
0 	0.690426 	1.11022e-17 	0.655022 	0.0954095 	-1.51924e-22
0 	0.749378 	9.71445e-18 	0.78562 	0.133026 	-4.04763e-21
0 	0.810522 	9.71445e-18 	0.896076 	0.166697 	-4.67664e-21
0 	0.873937 	9.71445e-18 	0.987946 	0.195584 	3.3128e-21
0 	0.939708 	1.11022e-17 	1.06272 	0.218353 	3.08992e-21
