0 	0.525939 	1.249e-17 	-0.589029
0 	0.57878 	1.249e-17 	-0.514397
0 	0.633585 	1.249e-17 	-0.493302
0 	0.690426 	1.11022e-17 	-0.449835
0 	0.749378 	9.71445e-18 	-0.418921
0 	0.810522 	9.71445e-18 	-0.382711
0 	0.873937 	9.71445e-18 	-0.34946
0 	0.939708 	1.11022e-17 	-0.315887
