/*--------------------------------*- C++ -*----------------------------------*\
  =========                 |
  \\      /  F ield         | OpenFOAM: The Open Source CFD Toolbox
   \\    /   O peration     | Website:  https://openfoam.org
    \\  /    A nd           | Version:  7
     \\/     M anipulation  |
\*---------------------------------------------------------------------------*/
FoamFile
{
    version     2.0;
    format      ascii;
    class       surfaceScalarField;
    location    "15";
    object      phi;
}
// * * * * * * * * * * * * * * * * * * * * * * * * * * * * * * * * * * * * * //

dimensions      [0 3 -1 0 0 0 0];

internalField   nonuniform List<scalar> 
5144
(
0.00299246
-0.000225919
0.00297548
-0.000243631
0.00295899
-0.000260679
0.00294299
-0.000277093
0.00292748
-0.000292899
0.00291244
-0.000308124
0.00289788
-0.000322789
0.00288377
-0.000336914
0.00287011
-0.000350514
0.00285688
-0.000363602
0.00284407
-0.000376191
0.00283168
-0.000388289
0.00281969
-0.000399903
0.00280809
-0.000411041
0.00279687
-0.000421706
0.00278603
-0.000431903
0.00277555
-0.000441635
0.00276542
-0.000450907
0.00275564
-0.000459719
0.00274621
-0.000468076
0.0027371
-0.000475979
0.00272833
-0.000483433
0.00271987
-0.00049044
0.00271173
-0.000497005
0.00270389
-0.00050313
0.00269636
-0.000508822
0.00268912
-0.000514086
0.00268217
-0.000518927
0.0026755
-0.000523351
0.00266911
-0.000527367
0.00266298
-0.00053098
0.00265713
-0.000534201
0.00265153
-0.000537037
0.00264618
-0.000539498
0.00264109
-0.000541594
0.00263623
-0.000543336
-0.000544733
0.0033382
4.78523e-05
-0.00335415
0.00332156
2.7527e-05
0.00330415
5.76449e-06
0.00328602
-1.662e-05
0.00326729
-3.94432e-05
0.00324816
-6.23017e-05
0.00322882
-8.48912e-05
0.00320946
-0.000107019
0.0031902
-0.000128561
0.00317117
-0.000149446
0.00315244
-0.000169643
0.00313408
-0.000189144
0.00311612
-0.000207958
0.00309859
-0.000226101
0.0030815
-0.000243595
0.00306487
-0.000260463
0.0030487
-0.000276726
0.00303298
-0.000292406
0.00301771
-0.000307521
0.00300289
-0.000322089
0.0029885
-0.000336125
0.00297454
-0.000349641
0.002961
-0.000362649
0.00294786
-0.000375156
0.00293513
-0.000387172
0.00292279
-0.000398701
0.00291084
-0.00040975
0.00289926
-0.000420323
0.00288804
-0.000430423
0.00287719
-0.000440054
0.00286669
-0.00044922
0.00285654
-0.000457922
0.00284672
-0.000466165
0.00283724
-0.000473951
0.00282809
-0.000481285
0.00281925
-0.000488169
0.00281073
-0.000494609
0.00280252
-0.000500608
0.0027946
-0.000506173
0.00278699
-0.00051131
0.00277966
-0.000516024
0.00277262
-0.000520324
0.00276585
-0.000524216
0.00275936
-0.000527708
0.00275313
-0.000530811
0.00274717
-0.000533532
0.00274145
-0.000535883
0.00273599
-0.000537873
-0.000539513
0.0034635
6.36817e-05
-0.00347933
0.0034471
4.39234e-05
0.00343004
2.28258e-05
0.00341231
1.10991e-06
0.00339398
-2.11145e-05
0.00337519
-4.35138e-05
0.00335611
-6.58042e-05
0.00333688
-8.77884e-05
0.00331764
-0.000109325
0.00329851
-0.00013032
0.00327959
-0.000150718
0.00326093
-0.000170491
0.00324261
-0.00018963
0.00322464
-0.000208136
0.00320706
-0.000226019
0.00318989
-0.000243293
0.00317314
-0.000259973
0.00315681
-0.000276075
0.0031409
-0.000291615
0.00312542
-0.000306605
0.00311035
-0.00032106
0.0030957
-0.000334991
0.00308146
-0.000348407
0.00306762
-0.000361317
0.00305418
-0.000373728
0.00304112
-0.000385646
0.00302845
-0.000397077
0.00301615
-0.000408025
0.00300422
-0.000418493
0.00299266
-0.000428486
0.00298144
-0.000438007
0.00297058
-0.000447058
0.00296006
-0.000455643
0.00294987
-0.000463766
0.00294002
-0.00047143
0.00293049
-0.000478639
0.00292127
-0.000485397
0.00291238
-0.00049171
0.00290379
-0.000497583
0.0028955
-0.000503021
0.0028875
-0.000508031
0.0028798
-0.00051262
0.00287238
-0.000516797
0.00286524
-0.000520568
0.00285837
-0.000523944
0.00285177
-0.000526932
0.00284544
-0.000529544
0.00283935
-0.00053179
-0.00053368
0.00359057
7.93368e-05
-0.00360623
0.00357445
6.00502e-05
0.00355774
3.9531e-05
0.00354042
1.84263e-05
0.00352252
-3.21236e-06
0.00350413
-2.51198e-05
0.00348537
-4.70434e-05
0.00346637
-6.87932e-05
0.00344727
-9.0222e-05
0.00342817
-0.000111222
0.00340918
-0.000131721
0.00339036
-0.000151674
0.00337178
-0.000171053
0.00335349
-0.000189848
0.00333553
-0.000208055
0.00331792
-0.00022568
0.00330067
-0.00024273
0.00328381
-0.000259214
0.00326734
-0.000275143
0.00325127
-0.000290528
0.00323558
-0.000305379
0.0032203
-0.000319704
0.0032054
-0.000333513
0.0031909
-0.000346812
0.00317678
-0.000359609
0.00316304
-0.000371908
0.00314968
-0.000383714
0.00313669
-0.000395033
0.00312406
-0.000405866
0.00311179
-0.000416219
0.00309988
-0.000426094
0.00308832
-0.000435494
0.0030771
-0.000444423
0.00306622
-0.000452884
0.00305567
-0.000460881
0.00304544
-0.000468417
0.00303555
-0.000475498
0.00302596
-0.000482128
0.00301669
-0.000488312
0.00300773
-0.000494056
0.00299906
-0.000499367
0.00299069
-0.000504251
0.00298261
-0.000508717
0.00297482
-0.000512773
0.0029673
-0.000516427
0.00296006
-0.000519689
0.00295308
-0.000522568
0.00294637
-0.000525076
-0.000527222
0.00371934
9.47535e-05
-0.00373475
0.00370352
7.58706e-05
0.00368719
5.58616e-05
0.0036703
3.53149e-05
0.00365285
1.42392e-05
0.00363489
-7.16249e-06
0.00361652
-2.86728e-05
0.00359784
-5.01176e-05
0.00357897
-7.1353e-05
0.00356002
-9.22653e-05
0.00354107
-0.000112771
0.0035222
-0.000132811
0.0035035
-0.000152346
0.003485
-0.000171351
0.00346676
-0.000189814
0.00344881
-0.000207727
0.00343117
-0.000225092
0.00341387
-0.000241911
0.00339691
-0.000258189
0.00338031
-0.000273933
0.00336408
-0.000289149
0.00334822
-0.000303843
0.00333273
-0.000318023
0.00331761
-0.000331693
0.00330286
-0.000344859
0.00328848
-0.000357526
0.00327447
-0.000369698
0.00326081
-0.000381378
0.00324752
-0.00039257
0.00323457
-0.000403277
0.00322198
-0.000413503
0.00320974
-0.000423249
0.00319783
-0.00043252
0.00318627
-0.000441318
0.00317504
-0.000449648
0.00316413
-0.000457513
0.00315355
-0.000464917
0.00314329
-0.000471865
0.00313334
-0.000478363
0.0031237
-0.000484416
0.00311436
-0.000490031
0.00310533
-0.000495214
0.00309658
-0.000499974
0.00308813
-0.000504318
0.00307996
-0.000508255
0.00307206
-0.000511795
0.00306444
-0.000514947
0.00305709
-0.000517721
-0.000520129
0.00384969
0.000109863
-0.0038648
0.00383422
9.13378e-05
0.00381829
7.17883e-05
0.00380185
5.17541e-05
0.00378488
3.12154e-05
0.00376739
1.03214e-05
0.00374947
-1.0746e-05
0.00373118
-3.18327e-05
0.00371263
-5.28043e-05
0.00369392
-7.35478e-05
0.00367512
-9.39742e-05
0.00365632
-0.000114016
0.0036376
-0.000133622
0.00361901
-0.000152759
0.0036006
-0.000171403
0.00358241
-0.000189539
0.00356448
-0.000207159
0.00354683
-0.000224259
0.00352948
-0.000240839
0.00351244
-0.0002569
0.00349574
-0.000272444
0.00347937
-0.000287476
0.00346335
-0.000301999
0.00344767
-0.000316016
0.00343234
-0.000329532
0.00341737
-0.000342549
0.00340274
-0.000355071
0.00338846
-0.0003671
0.00337453
-0.00037864
0.00336095
-0.000389693
0.00334771
-0.000400261
0.0033348
-0.000410348
0.00332224
-0.000419955
0.00331001
-0.000429087
0.00329811
-0.000437747
0.00328653
-0.000445938
0.00327528
-0.000453665
0.00326435
-0.000460932
0.00325373
-0.000467744
0.00324342
-0.000474107
0.00323342
-0.000480027
0.00322371
-0.000485511
0.00321431
-0.000490567
0.00320519
-0.000495203
0.00319636
-0.000499427
0.00318782
-0.000503248
0.00317954
-0.000506676
0.00317154
-0.000509722
-0.000512396
0.00398151
0.000124591
-0.00399624
0.00396645
0.000106398
0.00395097
8.72723e-05
0.003935
6.77148e-05
0.00391853
4.76881e-05
0.00390156
2.7297e-05
0.00388412
6.69031e-06
0.00386629
-1.39996e-05
0.00384813
-3.46513e-05
0.00382974
-5.51575e-05
0.0038112
-7.54283e-05
0.00379257
-9.53914e-05
0.00377394
-0.00011499
0.00375536
-0.000134181
0.00373689
-0.000152933
0.00371857
-0.000171222
0.00370045
-0.000189034
0.00368255
-0.000206357
0.00366489
-0.000223186
0.00364751
-0.000239517
0.00363042
-0.000255348
0.00361362
-0.00027068
0.00359713
-0.000285513
0.00358097
-0.000299848
0.00356512
-0.000313688
0.0035496
-0.000327032
0.00353442
-0.000339884
0.00351956
-0.000352246
0.00350504
-0.000364118
0.00349085
-0.000375503
0.00347699
-0.000386403
0.00346347
-0.000396821
0.00345027
-0.000406757
0.0034374
-0.000416217
0.00342485
-0.000425201
0.00341263
-0.000433714
0.00340072
-0.00044176
0.00338913
-0.000449342
0.00337786
-0.000456467
0.00336689
-0.000463139
0.00335623
-0.000469364
0.00334586
-0.00047515
0.0033358
-0.000480503
0.00332603
-0.000485431
0.00331654
-0.000489943
0.00330734
-0.000494048
0.00329842
-0.000497755
0.00328977
-0.000501075
-0.000504018
0.00411468
0.000138865
-0.00412895
0.00410009
0.00012099
0.00408509
0.000102267
0.00406965
8.31608e-05
0.00405371
6.36249e-05
0.00403728
4.37292e-05
0.00402037
2.3593e-05
0.00400305
3.32768e-06
0.00398536
-1.69603e-05
0.00396737
-3.71723e-05
0.00394916
-5.72214e-05
0.00393081
-7.70343e-05
0.00391237
-9.65503e-05
0.00389391
-0.000115721
0.00387548
-0.000134507
0.00385714
-0.000152881
0.00383893
-0.000170819
0.00382087
-0.000188305
0.00380301
-0.000205327
0.00378537
-0.000221876
0.00376797
-0.000237948
0.00375083
-0.000253537
0.00373396
-0.000268642
0.00371737
-0.000283261
0.00370108
-0.000297393
0.00368508
-0.000311038
0.0036694
-0.000324196
0.00365402
-0.000336868
0.00363895
-0.000349054
0.00362421
-0.000360755
0.00360977
-0.000371972
0.00359566
-0.000382707
0.00358186
-0.000392961
0.00356838
-0.000402737
0.00355522
-0.000412038
0.00354237
-0.000420865
0.00352984
-0.000429224
0.00351761
-0.000437117
0.0035057
-0.00044455
0.00349408
-0.000451528
0.00348278
-0.000458056
0.00347177
-0.000464141
0.00346105
-0.00046979
0.00345063
-0.00047501
0.0034405
-0.00047981
0.00343065
-0.000484199
0.00342109
-0.000488187
0.00341179
-0.000491782
-0.000494997
0.00424907
0.000152608
-0.00426282
0.00423501
0.000135051
0.00422056
0.000116722
0.00420567
9.80497e-05
0.00419031
7.89888e-05
0.00417445
5.9581e-05
0.00415813
3.99206e-05
0.00414136
2.00996e-05
0.00412419
2.09216e-07
0.00410668
-1.9662e-05
0.00408889
-3.94331e-05
0.00407089
-5.90323e-05
0.00405273
-7.83978e-05
0.00403449
-9.74779e-05
0.00401621
-0.00011623
0.00399795
-0.000134619
0.00397975
-0.000152617
0.00396165
-0.000170203
0.00394368
-0.000187359
0.00392588
-0.000204073
0.00390826
-0.000220334
0.00389086
-0.000236135
0.00387369
-0.00025147
0.00385676
-0.000266333
0.00384009
-0.000280723
0.00382369
-0.000294637
0.00380756
-0.000308072
0.00379172
-0.000321028
0.00377617
-0.000333504
0.00376092
-0.000345499
0.00374596
-0.000357015
0.0037313
-0.00036805
0.00371695
-0.000378607
0.0037029
-0.000388687
0.00368915
-0.000398292
0.00367571
-0.000407424
0.00366258
-0.000416087
0.00364974
-0.000424283
0.00363721
-0.000432018
0.00362498
-0.000439295
0.00361304
-0.000446121
0.0036014
-0.000452502
0.00359006
-0.000458443
0.003579
-0.000463954
0.00356823
-0.000469041
0.00355774
-0.000473713
0.00354754
-0.00047798
0.00353761
-0.000481851
-0.000485338
0.00438457
0.000165745
-0.0043977
0.0043711
0.000148515
0.00435725
0.000130578
0.00434296
0.000112334
0.00432821
9.37382e-05
0.00431298
7.4813e-05
0.00429727
5.56316e-05
0.0042811
3.62693e-05
0.00426451
1.6803e-05
0.00424753
-2.68985e-06
0.00423024
-2.21353e-05
0.00421267
-4.14654e-05
0.00419489
-6.06197e-05
0.00417696
-7.9545e-05
0.00415892
-9.8196e-05
0.00414084
-0.000116534
0.00412275
-0.000134528
0.0041047
-0.000152152
0.00408672
-0.000169383
0.00406885
-0.000186204
0.00405112
-0.000202601
0.00403355
-0.000218564
0.00401616
-0.000234082
0.00399898
-0.000249148
0.00398201
-0.000263757
0.00396528
-0.000277902
0.00394879
-0.000291582
0.00393255
-0.000304792
0.00391658
-0.000317531
0.00390088
-0.000329796
0.00388545
-0.000341587
0.0038703
-0.000352903
0.00385544
-0.000363745
0.00384086
-0.000374112
0.00382658
-0.000384006
0.00381258
-0.000393429
0.00379888
-0.000402384
0.00378547
-0.000410873
0.00377235
-0.000418899
0.00375952
-0.000426469
0.00374699
-0.000433585
0.00373474
-0.000440255
0.00372278
-0.000446484
0.00371111
-0.00045228
0.00369972
-0.000457649
0.0036886
-0.000462602
0.00367777
-0.000467146
0.00366721
-0.000471292
-0.000475049
0.00452103
0.000178202
-0.00453348
0.00450823
0.000161314
0.00449503
0.000143779
0.0044814
0.000125963
0.00446731
0.000107828
0.00445274
8.9383e-05
0.00443769
7.06839e-05
0.00442217
5.17916e-05
0.0044062
3.27702e-05
0.00438982
1.36864e-05
0.00437308
-5.39361e-06
0.00435602
-2.44071e-05
0.0043387
-4.32962e-05
0.00432116
-6.20084e-05
0.00430346
-8.04975e-05
0.00428565
-9.8723e-05
0.00426777
-0.00011665
0.00424987
-0.000134249
0.00423198
-0.000151495
0.00421414
-0.000168366
0.00419639
-0.000184845
0.00417874
-0.000200917
0.00416123
-0.00021657
0.00414387
-0.000231792
0.00412669
-0.000246577
0.00410971
-0.000260916
0.00409293
-0.000274803
0.00407637
-0.000288234
0.00406004
-0.000301204
0.00404396
-0.000313711
0.00402812
-0.000325751
0.00401254
-0.000337324
0.00399723
-0.000348428
0.00398218
-0.000359062
0.0039674
-0.000369227
0.00395289
-0.000378925
0.00393866
-0.000388156
0.00392472
-0.000396924
0.00391105
-0.000405231
0.00389766
-0.00041308
0.00388455
-0.000420478
0.00387173
-0.000427428
0.00385918
-0.000433937
0.00384691
-0.000440011
0.00383492
-0.000445658
0.0038232
-0.000450886
0.00381176
-0.000455704
0.00380059
-0.00046012
-0.000464145
0.00465834
0.000189907
-0.00467004
0.00464627
0.000173383
0.00463378
0.000156262
0.00462086
0.000138882
0.00460748
0.00012121
0.00459362
0.000103247
0.00457927
8.50342e-05
0.00456444
6.66217e-05
0.00454915
4.80623e-05
0.00453342
2.94129e-05
0.00451729
1.07317e-05
0.00450081
-7.92444e-06
0.00448402
-2.65012e-05
0.00446696
-4.49482e-05
0.00444968
-6.32196e-05
0.00443223
-8.12739e-05
0.00441465
-9.90747e-05
0.00439699
-0.00011659
0.00437929
-0.000133791
0.00436158
-0.000150655
0.0043439
-0.00016716
0.00432627
-0.000183288
0.00430872
-0.000199025
0.00429129
-0.000214357
0.00427398
-0.000229272
0.00425683
-0.000243761
0.00423984
-0.000257817
0.00422304
-0.000271431
0.00420643
-0.000284598
0.00419003
-0.000297314
0.00417386
-0.000309574
0.00415791
-0.000321375
0.0041422
-0.000332716
0.00412673
-0.000343594
0.00411151
-0.000354009
0.00409655
-0.000363962
0.00408184
-0.000373452
0.0040674
-0.000382482
0.00405322
-0.000391053
0.00403931
-0.00039917
0.00402567
-0.000406836
0.0040123
-0.000414055
0.0039992
-0.000420834
0.00398636
-0.000427178
0.0039738
-0.000433094
0.0039615
-0.00043859
0.00394947
-0.000443674
0.00393771
-0.000448356
-0.000452644
0.00479638
0.000200792
-0.00480726
0.0047851
0.000184658
0.00477339
0.00016797
0.00476124
0.000151037
0.00474861
0.000133836
0.0047355
0.000116359
0.0047219
9.86385e-05
0.0047078
8.07153e-05
0.00469323
6.26327e-05
0.00467821
4.44389e-05
0.00466275
2.61847e-05
0.00464691
7.9209e-06
0.00463071
-1.03026e-05
0.0046142
-2.84382e-05
0.00459742
-4.64413e-05
0.00458042
-6.42711e-05
0.00456323
-8.18901e-05
0.00454591
-9.92648e-05
0.00452848
-0.000116365
0.00451099
-0.000133165
0.00449347
-0.000149641
0.00447596
-0.000165772
0.00445847
-0.000181541
0.00444105
-0.000196932
0.00442371
-0.000211931
0.00440647
-0.000226526
0.00438936
-0.000240707
0.0043724
-0.000254464
0.00435559
-0.000267791
0.00433896
-0.000280681
0.00432251
-0.000293128
0.00430626
-0.000305127
0.00429022
-0.000316676
0.0042744
-0.000327772
0.0042588
-0.000338412
0.00424344
-0.000348596
0.00422831
-0.000358324
0.00421342
-0.000367596
0.00419879
-0.000376415
0.0041844
-0.000384782
0.00417026
-0.000392701
0.00415638
-0.000400176
0.00414276
-0.000407212
0.0041294
-0.000413813
0.00411629
-0.000419988
0.00410344
-0.000425743
0.00409086
-0.000431085
0.00407852
-0.000436024
-0.00044057
0.00493504
0.000210795
-0.00494505
0.00492462
0.000195077
0.00491375
0.000178845
0.00490241
0.000162376
0.00489059
0.000145655
0.00487828
0.000128672
0.00486546
0.000111452
0.00485215
9.40283e-05
0.00483835
7.64361e-05
0.00482407
5.87165e-05
0.00480934
4.09134e-05
0.00479419
2.30719e-05
0.00477865
5.23728e-06
0.00476276
-1.25462e-05
0.00474655
-3.02361e-05
0.00473007
-4.77926e-05
0.00471336
-6.51786e-05
0.00469646
-8.23599e-05
0.0046794
-9.93055e-05
0.00466222
-0.000115987
0.00464496
-0.00013238
0.00462765
-0.000148461
0.00461032
-0.00016421
0.004593
-0.00017961
0.00457571
-0.000194644
0.00455848
-0.000209298
0.00454133
-0.00022356
0.00452429
-0.000237419
0.00450736
-0.000250865
0.00449057
-0.000263891
0.00447393
-0.000276489
0.00445746
-0.000288654
0.00444116
-0.000300379
0.00442505
-0.000311662
0.00440914
-0.0003225
0.00439344
-0.00033289
0.00437794
-0.000342831
0.00436267
-0.000352324
0.00434763
-0.000361369
0.00433281
-0.000369967
0.00431823
-0.000378121
0.00430389
-0.000385835
0.00428979
-0.000393112
0.00427594
-0.000399958
0.00426233
-0.000406379
0.00424896
-0.00041238
0.00423585
-0.00041797
0.00422298
-0.000423157
-0.00042795
0.00507424
0.000219858
-0.0050833
0.00506473
0.000204586
0.00505475
0.000188832
0.00504428
0.000172845
0.00503331
0.000156619
0.00502184
0.000140141
0.00500986
0.000123432
0.00499737
0.000106518
0.00498438
8.94287e-05
0.0049709
7.21999e-05
0.00495694
5.48689e-05
0.00494254
3.74756e-05
0.00492772
2.00609e-05
0.0049125
2.66535e-06
0.00489694
-1.46713e-05
0.00488106
-3.19108e-05
0.0048649
-4.9017e-05
0.00484849
-6.59558e-05
0.00483188
-8.26958e-05
0.0048151
-9.92079e-05
0.00479819
-0.000115466
0.00478117
-0.000131445
0.00476408
-0.000147123
0.00474696
-0.000162481
0.00472981
-0.000177501
0.00471268
-0.000192167
0.00469559
-0.000206465
0.00467855
-0.000220381
0.00466159
-0.000233905
0.00464473
-0.000247027
0.00462797
-0.000259739
0.00461135
-0.000272031
0.00459487
-0.0002839
0.00457855
-0.000295338
0.00456239
-0.000306343
0.00454641
-0.00031691
0.00453062
-0.000327038
0.00451502
-0.000336726
0.00449963
-0.000345973
0.00448444
-0.000354781
0.00446947
-0.00036315
0.00445472
-0.000371083
0.00444019
-0.000378584
0.00442589
-0.000385658
0.00441182
-0.000392309
0.00439798
-0.000398543
0.00438438
-0.000404368
0.00437101
-0.000409791
-0.00041482
0.00521389
0.000227932
-0.00522197
0.00520535
0.000213133
0.0051963
0.000197881
0.00518674
0.000182398
0.00517668
0.000166682
0.0051661
0.000150722
0.005155
0.000134534
0.00514338
0.000118141
0.00513124
0.000101569
0.00511859
8.48458e-05
0.00510545
6.80057e-05
0.00509184
5.10834e-05
0.00507779
3.41155e-05
0.00506332
1.71392e-05
0.00504845
1.91205e-07
0.00503324
-1.66922e-05
0.00501769
-3.34762e-05
0.00500187
-5.01276e-05
0.00498579
-6.66149e-05
0.00496949
-8.29088e-05
0.004953
-9.89819e-05
0.00493637
-0.000114809
0.00491961
-0.000130367
0.00490276
-0.000145634
0.00488586
-0.000160592
0.00486891
-0.000175222
0.00485196
-0.000189509
0.00483501
-0.000203438
0.0048181
-0.000216997
0.00480125
-0.000230174
0.00478447
-0.000242958
0.00476778
-0.000255341
0.0047512
-0.000267316
0.00473473
-0.000278875
0.0047184
-0.000290014
0.00470222
-0.000300728
0.0046862
-0.000311013
0.00467034
-0.000320868
0.00465466
-0.000330292
0.00463916
-0.000339284
0.00462385
-0.000347844
0.00460875
-0.000355976
0.00459384
-0.000363681
0.00457915
-0.000370962
0.00456467
-0.000377826
0.0045504
-0.000384277
0.00453635
-0.000390321
0.00452253
-0.000395965
-0.000401218
0.00535394
0.000234974
-0.00536099
0.0053464
0.000220675
0.00533833
0.00020595
0.00532974
0.00019099
0.00532062
0.000175801
0.00531097
0.000160373
0.00530079
0.000144719
0.00529007
0.00012886
0.00527882
0.000112816
0.00526705
9.66137e-05
0.00525478
8.02814e-05
0.00524201
6.38502e-05
0.00522877
4.73528e-05
0.00521509
3.08231e-05
0.00520098
1.42951e-05
0.00518649
-2.19749e-06
0.00517164
-1.86214e-05
0.00515645
-3.49444e-05
0.00514097
-5.11359e-05
0.00512523
-6.71665e-05
0.00510926
-8.30088e-05
0.00509309
-9.86367e-05
0.00507674
-0.000114026
0.00506027
-0.000129155
0.00504368
-0.000144003
0.005027
-0.000158551
0.00501028
-0.00017278
0.00499351
-0.000186677
0.00497674
-0.000200226
0.00495999
-0.000213415
0.00494326
-0.000226231
0.00492658
-0.000238666
0.00490998
-0.000250708
0.00489345
-0.000262352
0.00487703
-0.00027359
0.00486072
-0.000284417
0.00484453
-0.000294828
0.00482848
-0.000304821
0.00481258
-0.000314392
0.00479684
-0.000323541
0.00478126
-0.000332268
0.00476586
-0.000340573
0.00475064
-0.000348459
0.00473561
-0.000355928
0.00472076
-0.000362984
0.00470612
-0.000369632
0.00469167
-0.000375877
0.00467744
-0.000381727
-0.000387188
0.00549436
0.00024095
-0.00550033
0.00548785
0.000227177
0.0054808
0.000212999
0.00547321
0.000198583
0.00546507
0.000183938
0.00545639
0.000169057
0.00544716
0.000153951
0.00543738
0.000138637
0.00542706
0.000123135
0.00541621
0.000107466
0.00540483
9.16571e-05
0.00539295
7.57349e-05
0.00538057
5.9729e-05
0.00536772
4.36701e-05
0.00535443
2.75893e-05
0.00534071
1.15184e-05
0.0053266
-4.51143e-06
0.00531213
-2.04695e-05
0.00529732
-3.63259e-05
0.0052822
-5.20519e-05
0.00526682
-6.76201e-05
0.00525118
-8.30045e-05
0.00523534
-9.81805e-05
0.00521931
-0.000113125
0.00520312
-0.000127817
0.00518681
-0.000142236
0.00517039
-0.000156363
0.0051539
-0.000170183
0.00513735
-0.000183678
0.00512077
-0.000196836
0.00510418
-0.000209643
0.0050876
-0.000222087
0.00507105
-0.000234159
0.00505455
-0.000245849
0.00503811
-0.00025715
0.00502175
-0.000268055
0.00500548
-0.000278558
0.00498931
-0.000288656
0.00497326
-0.000298344
0.00495734
-0.000307621
0.00494156
-0.000316486
0.00492593
-0.000324939
0.00491045
-0.000332981
0.00489513
-0.000340613
0.00487999
-0.000347839
0.00486502
-0.000354664
0.00485024
-0.000361091
0.00483564
-0.000367127
-0.000372778
0.00563511
0.000245835
-0.00564
0.00562968
0.000232611
0.00562368
0.000219001
0.00561711
0.000205148
0.00560999
0.000191063
0.0056023
0.000176743
0.00559406
0.000162197
0.00558525
0.000147441
0.0055759
0.000132492
0.00556599
0.00011737
0.00555555
0.000102098
0.00554459
8.67009e-05
0.00553311
7.12048e-05
0.00552114
5.56378e-05
0.0055087
4.00285e-05
0.00549581
2.44063e-05
0.0054825
8.80048e-06
0.00546879
-6.75971e-06
0.00545471
-2.22456e-05
0.00544029
-3.76294e-05
0.00542555
-5.2884e-05
0.00541053
-6.79836e-05
0.00539526
-8.29036e-05
0.00537975
-9.76205e-05
0.00536405
-0.000112112
0.00534817
-0.000126359
0.00533215
-0.00014034
0.005316
-0.000154038
0.00529976
-0.000167436
0.00528344
-0.00018052
0.00526708
-0.000193275
0.00525068
-0.000205688
0.00523427
-0.000217749
0.00521787
-0.000229447
0.00520149
-0.000240773
0.00518515
-0.000251719
0.00516887
-0.00026228
0.00515267
-0.000272449
0.00513655
-0.000282222
0.00512052
-0.000291596
0.0051046
-0.00030057
0.00508881
-0.000309142
0.00507314
-0.000317312
0.00505761
-0.000325082
0.00504222
-0.000332454
0.00502699
-0.000339431
0.00501192
-0.000346018
0.00499701
-0.00035222
-0.000358042
0.00577623
0.000249615
-0.00578001
0.00577188
0.000236959
0.00576695
0.000223935
0.00576144
0.00021066
0.00575535
0.00019715
0.00574869
0.000183404
0.00574145
0.00016943
0.00573365
0.000155243
0.00572528
0.000140859
0.00571636
0.000126295
0.00570688
0.000111574
0.00569687
9.67158e-05
0.00568633
8.17458e-05
0.00567528
6.66892e-05
0.00566373
5.15725e-05
0.00565172
3.64227e-05
0.00563925
2.12674e-05
0.00562636
6.13413e-06
0.00561306
-8.94973e-06
0.00559939
-2.39573e-05
0.00558537
-3.88623e-05
0.00557102
-5.36394e-05
0.00555638
-6.8264e-05
0.00554147
-8.27127e-05
0.00552632
-9.69633e-05
0.00551096
-0.000110995
0.00549541
-0.000124787
0.00547969
-0.000138321
0.00546383
-0.00015158
0.00544786
-0.000164548
0.0054318
-0.000177209
0.00541566
-0.000189551
0.00539947
-0.00020156
0.00538325
-0.000213226
0.00536702
-0.000224539
0.00535079
-0.00023549
0.00533458
-0.000246071
0.0053184
-0.000256276
0.00530228
-0.0002661
0.00528623
-0.000275539
0.00527025
-0.00028459
0.00525436
-0.000293251
0.00523857
-0.000301521
0.00522288
-0.000309401
0.00520732
-0.000316893
0.00519189
-0.000323998
0.00517659
-0.000330721
0.00516144
-0.000337065
-0.000343037
0.00591774
0.000252285
-0.00592041
0.00591449
0.000240213
0.00591064
0.000227786
0.00590619
0.000215104
0.00590116
0.000202182
0.00589554
0.000189021
0.00588934
0.00017563
0.00588256
0.000162023
0.00587521
0.000148213
0.00586728
0.000134219
0.0058588
0.000120059
0.00584976
0.000105753
0.00584019
9.13229e-05
0.00583008
7.67928e-05
0.00581947
6.21868e-05
0.00580836
4.75301e-05
0.00579678
3.28484e-05
0.00578475
1.81677e-05
0.00577228
3.51389e-06
0.00575941
-1.10872e-05
0.00574616
-2.56102e-05
0.00573255
-4.00304e-05
0.00571861
-5.43236e-05
0.00570436
-6.84667e-05
0.00568984
-8.24373e-05
0.00567506
-9.62141e-05
0.00566005
-0.000109777
0.00564483
-0.000123107
0.00562944
-0.000136185
0.00561389
-0.000148996
0.0055982
-0.000161523
0.0055824
-0.000173753
0.00556652
-0.000185671
0.00555055
-0.000197266
0.00553454
-0.000208527
0.0055185
-0.000219444
0.00550244
-0.000230009
0.00548637
-0.000240215
0.00547033
-0.000250055
0.00545432
-0.000259525
0.00543835
-0.00026862
0.00542243
-0.000277339
0.00540659
-0.000285679
0.00539083
-0.00029364
0.00537516
-0.000301223
0.00535959
-0.000308429
0.00534413
-0.000315262
0.00532879
-0.000321725
-0.000327822
0.00605972
0.000253848
-0.00606128
0.00605756
0.000242371
0.00605479
0.000230553
0.00605142
0.000218474
0.00604745
0.00020615
0.00604289
0.000193583
0.00603774
0.000180784
0.006032
0.000167764
0.00602567
0.000154539
0.00601877
0.000141122
0.00601129
0.000127533
0.00600325
0.00011379
0.00599467
9.99123e-05
0.00598554
8.59225e-05
0.00597588
7.1843e-05
0.00596571
5.76972e-05
0.00595505
4.35091e-05
0.00594392
2.93031e-05
0.00593233
1.51039e-05
0.0059203
9.36085e-07
0.00590787
-1.3176e-05
0.00589505
-2.72084e-05
0.00588186
-4.11376e-05
0.00586834
-5.49408e-05
0.00585449
-6.85958e-05
0.00584036
-8.20814e-05
0.00582596
-9.53772e-05
0.00581132
-0.000108464
0.00579646
-0.000121323
0.0057814
-0.000133938
0.00576617
-0.000146292
0.00575078
-0.000158369
0.00573527
-0.000170157
0.00571965
-0.000181642
0.00570393
-0.000192813
0.00568815
-0.000203659
0.00567231
-0.000214171
0.00565644
-0.000224341
0.00564054
-0.000234162
0.00562465
-0.000243628
0.00560876
-0.000252735
0.0055929
-0.000261479
0.00557708
-0.000269857
0.00556131
-0.000277868
0.0055456
-0.000285513
0.00552996
-0.000292792
0.00551441
-0.000299708
0.00549894
-0.000306263
-0.000312461
0.00620224
0.000254319
-0.00620271
0.00620117
0.000243444
0.00619948
0.000232241
0.00619718
0.000220771
0.00619428
0.000209051
0.00619078
0.000197086
0.00618668
0.000184885
0.00618198
0.00017246
0.0061767
0.000159825
0.00617083
0.000146994
0.00616438
0.000133983
0.00615735
0.000120811
0.00614977
0.000107496
0.00614163
9.40583e-05
0.00613296
8.05185e-05
0.00612376
6.68986e-05
0.00611405
5.32211e-05
0.00610384
3.95091e-05
0.00609316
2.57858e-05
0.00608202
1.20746e-05
0.00607044
-1.60111e-06
0.00605845
-1.52183e-05
0.00604607
-2.87542e-05
0.00603332
-4.21865e-05
0.00602021
-5.54934e-05
0.00600679
-6.86539e-05
0.00599306
-8.16478e-05
0.00597905
-9.44556e-05
0.00596478
-0.000107059
0.00595029
-0.00011944
0.00593558
-0.000131583
0.00592068
-0.000143471
0.00590561
-0.00015509
0.0058904
-0.000166428
0.00587506
-0.000177471
0.00585961
-0.000188209
0.00584407
-0.000198631
0.00582845
-0.000208729
0.00581279
-0.000218496
0.00579708
-0.000227923
0.00578135
-0.000237007
0.00576562
-0.000245742
0.00574989
-0.000254126
0.00573417
-0.000262157
0.0057185
-0.000269834
0.00570286
-0.000277156
0.00568728
-0.000284126
0.00567176
-0.000290745
-0.000297018
0.00634544
0.00025372
-0.00634484
0.00634544
0.00024345
0.00634481
0.000232863
0.00634358
0.000222005
0.00634174
0.000210894
0.00633929
0.000199534
0.00633624
0.000187935
0.00633259
0.000176109
0.00632835
0.000164068
0.00632351
0.000151828
0.00631809
0.000139402
0.0063121
0.000126808
0.00630553
0.000114063
0.0062984
0.000101187
0.00629072
8.81971e-05
0.00628251
7.51155e-05
0.00627376
6.1963e-05
0.00626451
4.87612e-05
0.00625477
3.5532e-05
0.00624454
2.22976e-05
0.00623386
9.08036e-06
0.00622274
-4.09756e-06
0.0062112
-1.72142e-05
0.00619926
-3.02479e-05
0.00618695
-4.31774e-05
0.00617427
-5.59822e-05
0.00616127
-6.86421e-05
0.00614795
-8.11379e-05
0.00613434
-9.3451e-05
0.00612047
-0.000105564
0.00610634
-0.00011746
0.006092
-0.000129122
0.00607744
-0.000140537
0.00606271
-0.000151691
0.0060478
-0.00016257
0.00603276
-0.000173163
0.00601759
-0.00018346
0.00600231
-0.00019345
0.00598694
-0.000203126
0.0059715
-0.000212481
0.005956
-0.000221507
0.00594046
-0.000230201
0.00592489
-0.000238559
0.00590931
-0.000246576
0.00589373
-0.000254254
0.00587816
-0.000261589
0.00586262
-0.000268584
0.00584711
-0.00027524
-0.000281559
0.00648946
0.000252081
-0.00648782
0.00649049
0.000242415
0.00649091
0.000232442
0.00649072
0.000222196
0.00648993
0.000211692
0.00648852
0.000200938
0.00648651
0.000189942
0.00648391
0.000178717
0.0064807
0.000167273
0.0064769
0.000155626
0.00647252
0.000143789
0.00646755
0.000131778
0.006462
0.000119609
0.00645589
0.0001073
0.00644922
9.48691e-05
0.006442
8.23358e-05
0.00643424
6.97198e-05
0.00642596
5.70415e-05
0.00641717
4.43216e-05
0.00640789
3.15811e-05
0.00639812
1.88414e-05
0.0063879
6.12363e-06
0.00637724
-6.55108e-06
0.00636615
-1.91618e-05
0.00635466
-3.16879e-05
0.00634279
-4.41093e-05
0.00633056
-5.64062e-05
0.00631798
-6.85597e-05
0.00630508
-8.05513e-05
0.00629188
-9.23634e-05
0.0062784
-0.000103979
0.00626466
-0.000115383
0.00625068
-0.000126559
0.00623648
-0.000137494
0.00622209
-0.000148174
0.00620751
-0.000158588
0.00619277
-0.000168724
0.0061779
-0.000178572
0.00616289
-0.000188123
0.00614778
-0.00019737
0.00613258
-0.000206306
0.0061173
-0.000214925
0.00610197
-0.000223222
0.00608659
-0.000231195
0.00607117
-0.000238842
0.00605574
-0.00024616
0.00604031
-0.00025315
0.00602488
-0.000259813
-0.00026615
0.00663446
0.000249441
-0.00663182
0.0066365
0.000240373
0.00663794
0.000231008
0.00663877
0.000221369
0.00663899
0.000211469
0.00663861
0.000201318
0.00663763
0.000190923
0.00663605
0.000180297
0.00663387
0.000169451
0.0066311
0.000158397
0.00662774
0.00014715
0.00662379
0.000135723
0.00661927
0.000124134
0.00661417
0.000112397
0.00660851
0.000100531
0.00660229
8.85538e-05
0.00659553
7.64833e-05
0.00658823
6.43391e-05
0.00658041
5.21409e-05
0.00657208
3.99086e-05
0.00656326
2.76623e-05
0.00655396
1.54224e-05
0.0065442
3.20916e-06
0.006534
-8.95732e-06
0.00652337
-2.10571e-05
0.00651233
-3.30706e-05
0.0065009
-4.49786e-05
0.0064891
-5.67625e-05
0.00647696
-6.84041e-05
0.00646448
-7.9886e-05
0.00645169
-9.11914e-05
0.00643861
-0.000102304
0.00642526