/*--------------------------------*- C++ -*----------------------------------*\
  =========                 |
  \\      /  F ield         | OpenFOAM: The Open Source CFD Toolbox
   \\    /   O peration     | Website:  https://openfoam.org
    \\  /    A nd           | Version:  7
     \\/     M anipulation  |
\*---------------------------------------------------------------------------*/
FoamFile
{
    version     2.0;
    format      ascii;
    class       volScalarField;
    location    "100";
    object      p;
}
// * * * * * * * * * * * * * * * * * * * * * * * * * * * * * * * * * * * * * //

dimensions      [0 2 -2 0 0 0 0];

internalField   nonuniform List<scalar> 
2625
(
-0.268337
-0.255488
-0.243067
-0.231106
-0.219884
-0.209029
-0.199783
-0.189633
-0.203437
-0.201686
-0.19781
-0.202031
-0.187011
-0.201986
-0.160753
-0.203022
-0.151633
-0.210277
-0.204493
-0.149971
-0.209745
-0.205667
-0.149444
-0.20936
-0.206519
-0.149146
-0.227906
-0.209082
-0.207164
-0.149281
-0.227784
-0.208885
-0.207643
-0.149807
-0.227628
-0.208749
-0.207966
-0.150588
-0.227436
-0.208656
-0.208151
-0.15154
-0.240411
-0.227213
-0.208593
-0.208216
-0.152623
-0.240023
-0.22696
-0.208551
-0.208177
-0.153813
-0.23962
-0.226681
-0.208523
-0.20805
-0.155092
-0.239206
-0.226379
-0.208505
-0.207848
-0.156446
-0.238781
-0.226059
-0.208493
-0.207582
-0.157867
-0.252757
-0.23835
-0.225724
-0.208487
-0.207264
-0.159345
-0.252181
-0.237914
-0.225378
-0.208485
-0.206903
-0.160873
-0.251602
-0.237476
-0.225025
-0.208486
-0.206509
-0.162444
-0.251023
-0.237038
-0.224668
-0.208491
-0.20609
-0.164048
-0.250447
-0.236602
-0.22431
-0.208499
-0.205653
-0.165679
-0.249876
-0.236172
-0.223954
-0.208511
-0.205207
-0.167328
-0.262822
-0.249315
-0.235749
-0.223603
-0.208526
-0.204756
-0.168985
-0.262179
-0.248764
-0.235334
-0.22326
-0.208545
-0.204308
-0.170641
-0.261551
-0.248228
-0.234931
-0.222927
-0.208568
-0.203866
-0.172287
-0.260943
-0.247708
-0.234541
-0.222605
-0.208594
-0.203435
-0.173911
-0.260356
-0.247206
-0.234166
-0.222298
-0.208623
-0.20302
-0.175505
-0.259793
-0.246725
-0.233807
-0.222005
-0.208655
-0.202623
-0.177059
-0.259256
-0.246267
-0.233465
-0.221728
-0.208689
-0.202248
-0.178561
-0.258748
-0.245833
-0.233143
-0.221469
-0.208724
-0.201895
-0.180002
-0.25827
-0.245426
-0.232841
-0.221228
-0.20876
-0.201568
-0.181373
-0.271002
-0.257824
-0.245047
-0.23256
-0.221005
-0.208796
-0.201268
-0.182664
-0.270533
-0.257413
-0.244698
-0.232302
-0.220802
-0.208832
-0.200994
-0.183867
-0.270105
-0.257038
-0.244379
-0.232067
-0.220619
-0.208867
-0.200749
-0.184974
-0.26972
-0.2567
-0.244093
-0.231857
-0.220456
-0.208899
-0.200531
-0.185977
-0.26938
-0.256402
-0.24384
-0.231671
-0.220313
-0.208929
-0.200342
-0.18687
-0.269085
-0.256143
-0.243621
-0.231511
-0.22019
-0.208956
-0.200181
-0.187646
-0.268838
-0.255926
-0.243438
-0.231376
-0.220088
-0.20898
-0.200047
-0.188301
-0.268638
-0.255752
-0.24329
-0.231268
-0.220006
-0.208999
-0.199941
-0.18883
-0.268488
-0.25562
-0.243179
-0.231187
-0.219945
-0.209014
-0.199862
-0.18923
-0.268387
-0.255532
-0.243105
-0.231133
-0.219904
-0.209024
-0.199809
-0.189499
-0.268337
-0.255488
-0.243067
-0.231106
-0.219884
-0.209029
-0.199783
-0.189633
-0.184732
-0.180736
-0.176642
-0.172589
-0.168531
-0.164477
-0.160443
-0.156434
-0.152457
-0.148517
-0.14462
-0.14077
-0.13697
-0.133225
-0.191586
-0.195365
-0.179673
-0.199102
-0.178159
-0.181449
-0.20273
-0.174808
-0.17982
-0.183027
-0.2061
-0.171852
-0.176129
-0.1812
-0.184379
-0.208972
-0.173204
-0.177439
-0.182513
-0.185761
-0.21125
-0.174276
-0.178524
-0.18364
-0.187222
-0.212626
-0.173664
-0.177649
-0.182421
-0.186302
-0.209638
-0.172678
-0.175349
-0.17826
-0.180708
-0.197166
-0.155151
-0.171719
-0.16933
-0.168585
-0.167313
-0.165421
-0.163175
-0.160636
-0.157881
-0.154967
-0.151938
-0.148827
-0.145661
-0.142462
-0.139245
-0.136025
-0.132811
-0.129613
-0.126436
-0.123286
-0.120167
-0.117083
-0.114036
-0.111029
-0.108064
-0.105141
-0.102263
-0.0994301
-0.0966439
-0.0939051
-0.0912143
-0.0885722
-0.0859792
-0.0834358
-0.0809423
-0.078499
-0.076106
-0.0737634
-0.0714711
-0.0692291
-0.0670372
-0.0648952
-0.0628026
-0.0607591
-0.0587642
-0.0568174
-0.054918
-0.0530653
-0.155384
-0.174308
-0.171534
-0.170873
-0.16949
-0.167458
-0.165062
-0.162372
-0.159472
-0.156421
-0.153264
-0.150035
-0.14676
-0.143461
-0.140152
-0.136847
-0.133555
-0.130285
-0.127042
-0.123831
-0.120656
-0.117521
-0.114426
-0.111375
-0.108369
-0.105408
-0.102496
-0.099631
-0.0968153
-0.0940494
-0.0913336
-0.0886686
-0.0860547
-0.0834921
-0.0809811
-0.0785219
-0.0761146
-0.073759
-0.0714551
-0.0692027
-0.0670016
-0.0648514
-0.0627517
-0.0607021
-0.0587019
-0.0567506
-0.0548475
-0.0529919
-0.155528
-0.176958
-0.173783
-0.173195
-0.171673
-0.169485
-0.166927
-0.164078
-0.161029
-0.157839
-0.154554
-0.151207
-0.147825
-0.144426
-0.141027
-0.137639
-0.134271
-0.130931
-0.127624
-0.124354
-0.121125
-0.11794
-0.114799
-0.111705
-0.10866
-0.105664
-0.102717
-0.099822
-0.096978
-0.0941859
-0.0914462
-0.0887592
-0.0861251
-0.0835441
-0.0810164
-0.0785419
-0.0761208
-0.0737528
-0.0714377
-0.0691754
-0.0669655
-0.0648075
-0.062701
-0.0606455
-0.0586403
-0.0566848
-0.0547782
-0.0529197
-0.155661
-0.179679
-0.176104
-0.175558
-0.173866
-0.171501
-0.168768
-0.165753
-0.16255
-0.15922
-0.155807
-0.152343
-0.148854
-0.145358
-0.14187
-0.138401
-0.13496
-0.131552
-0.128183
-0.124856
-0.121575
-0.118341
-0.115156
-0.112021
-0.108938
-0.105907
-0.102928
-0.100003
-0.0971322
-0.0943151
-0.0915523
-0.0888441
-0.0861906
-0.083592
-0.0810482
-0.0785591
-0.0761247
-0.0737448
-0.0714191
-0.0691473
-0.0669289
-0.0647635
-0.0626506
-0.0605894
-0.0585795
-0.0566199
-0.05471
-0.0528489
-0.155911
-0.182487
-0.178528
-0.177968
-0.176067
-0.173503
-0.170582
-0.167394
-0.164034
-0.160563
-0.157022
-0.153442
-0.149848
-0.146257
-0.142683
-0.139135
-0.135621
-0.132148
-0.128719
-0.125337
-0.122005
-0.118724
-0.115497
-0.112323
-0.109203
-0.106139
-0.103129
-0.100176
-0.0972785
-0.0944373
-0.0916524
-0.0889239
-0.0862519
-0.0836363
-0.081077
-0.078574
-0.0761269
-0.0737356
-0.0713997
-0.0691187
-0.0668923
-0.0647198
-0.0626007
-0.0605342
-0.0585197
-0.0565564
-0.0546433
-0.0527797
-0.156471
-0.185393
-0.181077
-0.180416
-0.178265
-0.17548
-0.172357
-0.168991
-0.165474
-0.161861
-0.158193
-0.1545
-0.150803
-0.14712
-0.143461
-0.139837
-0.136255
-0.132718
-0.129231
-0.125796
-0.122416
-0.119091
-0.115822
-0.11261
-0.109456
-0.106359
-0.103321
-0.10034
-0.0974176
-0.0945534
-0.0917473
-0.0889994
-0.0863096
-0.0836778
-0.0811038
-0.0785873
-0.0761282
-0.073726
-0.0713803
-0.0690907
-0.0668565
-0.0646773
-0.0625523
-0.0604807
-0.0584619
-0.0564949
-0.0545789
-0.0527128
-0.157527
-0.18841
-0.183799
-0.182907
-0.18046
-0.177428
-0.174094
-0.170545
-0.166869
-0.163115
-0.159323
-0.155518
-0.151721
-0.147947
-0.144207
-0.14051
-0.13686
-0.133262
-0.12972
-0.126234
-0.122807
-0.119439
-0.116131
-0.112883
-0.109696
-0.106569
-0.103502
-0.100495
-0.0975485
-0.0946621
-0.0918358
-0.0890693
-0.0863625
-0.0837152
-0.081127
-0.0785978
-0.076127
-0.0737144
-0.0713594
-0.0690614
-0.0668199
-0.0646342
-0.0625036
-0.0604273
-0.0584043
-0.0564339
-0.0545151
-0.0526468
-0.15915
-0.191644
-0.186885
-0.185564
-0.182751
-0.179437
-0.175869
-0.172125
-0.168279
-0.164379
-0.160456
-0.156535
-0.152635
-0.148769
-0.144946
-0.141173
-0.137455
-0.133796
-0.130197
-0.12666
-0.123186
-0.119775
-0.116428
-0.113143
-0.109922
-0.106764
-0.103669
-0.100636
-0.0976658
-0.0947574
-0.0919109
-0.0891259
-0.0864022
-0.0837395
-0.0811374
-0.0785955
-0.0761134
-0.0736906
-0.0713265
-0.0690206
-0.066772
-0.0645802
-0.0624443
-0.0603634
-0.0583367
-0.0563632
-0.0544419
-0.0525718
-0.162316
-0.195382
-0.190565
-0.188535
-0.185263
-0.181618
-0.177785
-0.173821
-0.169788
-0.165724
-0.161658
-0.157611
-0.153598
-0.14963
-0.145717
-0.141863
-0.138072
-0.134346
-0.130686
-0.127095
-0.12357
-0.120114
-0.116724
-0.113401
-0.110145
-0.106955
-0.103829
-0.100769
-0.0977739
-0.0948426
-0.0919751
-0.089171
-0.0864299
-0.0837514
-0.0811351
-0.0785804
-0.0760869
-0.0736538
-0.0712807
-0.0689668
-0.0667114
-0.0645136
-0.0623727
-0.0602876
-0.0582574
-0.0562812
-0.0543578
-0.0524861
-0.173394
-0.1991
-0.19368
-0.190822
-0.187142
-0.183231
-0.179205
-0.175084
-0.17092
-0.166743
-0.162579
-0.158444
-0.154354
-0.150317
-0.146341
-0.142431
-0.138589
-0.134817
-0.131116
-0.127486
-0.123927
-0.120438
-0.117019
-0.113669
-0.110388
-0.107174
-0.104027
-0.100948
-0.097934
-0.0949859
-0.0921028
-0.0892844
-0.0865301
-0.0838394
-0.0812118
-0.0786468
-0.0761437
-0.073702
-0.0713209
-0.0689996
-0.0667375
-0.0645337
-0.0623872
-0.0602971
-0.0582625
-0.0562821
-0.0543551
-0.0524801
-0.20455
-0.200069
-0.192687
-0.189351
-0.185716
-0.181922
-0.178058
-0.174104
-0.170096
-0.166062
-0.162026
-0.158007
-0.154018
-0.150072
-0.146176
-0.142336
-0.138557
-0.13484
-0.131188
-0.127602
-0.124081
-0.120627
-0.117238
-0.113915
-0.110657
-0.107464
-0.104335
-0.101271
-0.0982697
-0.0953321
-0.0924574
-0.0896454
-0.0868957
-0.0842079
-0.0815817
-0.0790165
-0.0765119
-0.0740674
-0.0716824
-0.0693563
-0.0670883
-0.0648777
-0.0627237
-0.0606255
-0.0585821
-0.0565925
-0.0546557
-0.0527708
-0.212184
-0.205278
-0.197335
-0.193385
-0.189191
-0.184867
-0.180557
-0.176226
-0.171895
-0.167585
-0.163312
-0.159089
-0.154925
-0.150826
-0.146799
-0.142844
-0.138964
-0.13516
-0.131431
-0.127777
-0.124197
-0.120689
-0.117254
-0.113889
-0.110595
-0.10737
-0.104213
-0.101123
-0.0981005
-0.0951441
-0.0922533
-0.0894276
-0.0866664
-0.0839691
-0.0813353
-0.0787642
-0.0762553
-0.0738079
-0.0714213
-0.0690947
-0.0668273
-0.0646183
-0.0624668
-0.0603717
-0.0583321
-0.056347
-0.0544152
-0.0525356
-0.213967
-0.207315
-0.199476
-0.195359
-0.190788
-0.186087
-0.181457
-0.176856
-0.172298
-0.167801
-0.163372
-0.15902
-0.154749
-0.150562
-0.146462
-0.142447
-0.138517
-0.134672
-0.130909
-0.127227
-0.123624
-0.120098
-0.116648
-0.113272
-0.109969
-0.106738
-0.103578
-0.100487
-0.0974647
-0.0945106
-0.0916238
-0.0888034
-0.0860489
-0.0833596
-0.0807348
-0.0781737
-0.0756758
-0.0732401
-0.0708659
-0.0685524
-0.0662987
-0.0641037
-0.0619667
-0.0598864
-0.0578618
-0.0558918
-0.0539753
-0.0521111
-0.21659
-0.208957
-0.2007
-0.196338
-0.191467
-0.186499
-0.181654
-0.176876
-0.172175
-0.167561
-0.163039
-0.158611
-0.154281
-0.150047
-0.145909
-0.141865
-0.137912
-0.13405
-0.130274
-0.126582
-0.122973
-0.119444
-0.115993
-0.112617
-0.109317
-0.106089
-0.102934
-0.0998492
-0.0968344
-0.0938886
-0.0910108
-0.0882004
-0.0854566
-0.0827787
-0.0801658
-0.0776173
-0.0751323
-0.07271
-0.0703495
-0.0680501
-0.0658106
-0.0636301
-0.0615075
-0.0594419
-0.057432
-0.0554767
-0.0535748
-0.0517251
-0.218671
-0.210485
-0.201796
-0.197172
-0.192036
-0.186837
-0.181807
-0.176878
-0.172053
-0.167338
-0.162734
-0.158242
-0.153859
-0.149583
-0.145412
-0.141342
-0.137369
-0.133491
-0.129703
-0.126003
-0.122388
-0.118855
-0.115402
-0.112027
-0.108728
-0.105503
-0.102352
-0.0992721
-0.0962636
-0.0933249
-0.0904551
-0.0876536
-0.0849192
-0.0822514
-0.0796492
-0.0771119
-0.0746385
-0.0722283
-0.0698802
-0.0675933
-0.0653667
-0.0631992
-0.0610898
-0.0590374
-0.0570408
-0.0550988
-0.0532101
-0.0513735
-0.220023
-0.211576
-0.20259
-0.197763
-0.192419
-0.187033
-0.181849
-0.176793
-0.171862
-0.167062
-0.16239
-0.157842
-0.153416
-0.149105
-0.144906
-0.140815
-0.136825
-0.132934
-0.129137
-0.12543
-0.12181
-0.118274
-0.11482
-0.111446
-0.108149
-0.104928
-0.101781
-0.0987065
-0.0957043
-0.0927728
-0.0899111
-0.0871183
-0.0843934
-0.0817355
-0.0791439
-0.0766176
-0.0741557
-0.0717573
-0.0694214
-0.0671469
-0.0649329
-0.0627782
-0.0606818
-0.0586423
-0.0566587
-0.0547297
-0.0528539
-0.0510302
-0.220936
-0.212299
-0.203067
-0.198068
-0.192562
-0.187029
-0.181724
-0.176567
-0.171555
-0.16669
-0.161965
-0.157377
-0.152917
-0.148582
-0.144363
-0.140257
-0.136256
-0.132357
-0.128554
-0.124843
-0.121222
-0.117686
-0.114234
-0.110861
-0.107568
-0.104351
-0.10121
-0.0981422
-0.0951472
-0.0922237
-0.0893707
-0.0865872
-0.0838721
-0.0812247
-0.078644
-0.076129
-0.0736788
-0.0712924
-0.0689687
-0.0667067
-0.0645054
-0.0623635
-0.0602799
-0.0582533
-0.0562826
-0.0543665
-0.0525036
-0.221508
-0.212727
-0.203288
-0.198133
-0.192499
-0.186852
-0.181453
-0.176221
-0.171149
-0.166235
-0.161474
-0.156856
-0.152375
-0.148023
-0.143792
-0.139677
-0.13567
-0.131767
-0.127962
-0.124251
-0.120631
-0.117097
-0.113647
-0.110279
-0.106991
-0.10378
-0.100645
-0.0975848
-0.0945977
-0.0916828
-0.0888389
-0.0860651
-0.0833603
-0.0807235
-0.0781538
-0.0756503
-0.0732118
-0.0708374
-0.068526
-0.0662764
-0.0640876
-0.0619584
-0.0598875
-0.0578737
-0.0559157
-0.0540122
-0.0521619
-0.221769
-0.212881
-0.203282
-0.197991
-0.192258
-0.186525
-0.181058
-0.175773
-0.170658
-0.165713
-0.160928
-0.156292
-0.151798
-0.147437
-0.143201
-0.139082
-0.135074
-0.13117
-0.127366
-0.123658
-0.12004
-0.116511
-0.113066
-0.109703
-0.106421
-0.103217
-0.100089
-0.0970366
-0.094058
-0.0911521
-0.0883178
-0.0855539
-0.0828595
-0.0802335
-0.077675
-0.0751829
-0.0727562
-0.0703937
-0.0680944
-0.0658572
-0.0636808
-0.061564
-0.0595056
-0.0575043
-0.0555588
-0.0536677
-0.0518298
-0.221746
-0.212778
-0.203067
-0.197663
-0.191858
-0.186066
-0.180553
-0.175233
-0.170094
-0.165131
-0.160334
-0.155691
-0.151192
-0.146829
-0.142593
-0.138475
-0.134469
-0.130569
-0.126769
-0.123065
-0.119452
-0.115928
-0.112489
-0.109133
-0.105858
-0.102661
-0.0995419
-0.096498
-0.0935284
-0.0906319
-0.0878074
-0.0850538
-0.0823699
-0.0797549
-0.0772076
-0.074727
-0.0723119
-0.0699613
-0.0676741
-0.065449
-0.0632848
-0.0611803
-0.0591342
-0.0571451
-0.0552118
-0.0533329
-0.051507
-0.221465
-0.212442
-0.202664
-0.197169
-0.191315
-0.185488
-0.179949
-0.174613
-0.169464
-0.164497
-0.159698
-0.155057
-0.150561
-0.146202
-0.141971
-0.137858
-0.133858
-0.129964
-0.126171
-0.122473
-0.118868
-0.115351
-0.111919
-0.108571
-0.105304
-0.102115
-0.0990044
-0.0959696
-0.0930094
-0.0901227
-0.0873083
-0.0845651
-0.081892
-0.0792879
-0.0767518
-0.0742827
-0.0718792
-0.0695404
-0.0672651
-0.0650519
-0.0628998
-0.0608073
-0.0587733
-0.0567963
-0.0548749
-0.0530078
-0.0511936
-0.220947
-0.211893
-0.202096
-0.196529
-0.190649
-0.184807
-0.17926
-0.173924
-0.168779
-0.163818
-0.159028
-0.154395
-0.14991
-0.14556
-0.141338
-0.137236
-0.133245
-0.129359
-0.125575
-0.121885
-0.118288
-0.11478
-0.111357
-0.108017
-0.104758
-0.101579
-0.0984775
-0.0954522
-0.0925018
-0.0896251
-0.086821
-0.0840883
-0.081426
-0.078833
-0.0763081
-0.0738503
-0.0714584
-0.0691313
-0.0668677
-0.0646663
-0.062526
-0.0604454
-0.0584231
-0.0564578
-0.0545481
-0.0526926
-0.0508899
-0.220211
-0.211153
-0.201379
-0.195762
-0.189875
-0.184037
-0.178499
-0.173176
-0.168046
-0.163102
-0.158328
-0.153712
-0.149242
-0.144908
-0.140699
-0.136609
-0.13263
-0.128756
-0.124982
-0.121303
-0.117715
-0.114216
-0.110803
-0.107473
-0.104223
-0.101054
-0.0979619
-0.0949464
-0.092006
-0.0891396
-0.086346
-0.083624
-0.0809725
-0.0783905
-0.0758768
-0.0734303
-0.0710499
-0.0687342
-0.0664821
-0.0642924
-0.0621637
-0.0600946
-0.0580839
-0.05613
-0.0542317
-0.0523875
-0.0505958
-0.219275
-0.210241
-0.200533
-0.194885
-0.189009
-0.183193
-0.177677
-0.172379
-0.167276
-0.162357
-0.157607
-0.153013
-0.148564
-0.144248
-0.140057
-0.135982
-0.132017
-0.128156
-0.124394
-0.120727
-0.117151
-0.113662
-0.110259
-0.106939
-0.1037
-0.10054
-0.0974582
-0.094453
-0.0915229
-0.0886669
-0.0858838
-0.0831726
-0.080532
-0.0779609
-0.0754583
-0.073023
-0.0706538
-0.0683495
-0.0661087
-0.0639303
-0.0618129
-0.0597552
-0.0577557
-0.055813
-0.0539258
-0.0520925
-0.218158
-0.209177
-0.199575
-0.193916
-0.188067
-0.182287
-0.176806
-0.171544
-0.166475
-0.161589
-0.156869
-0.152303
-0.147878
-0.143585
-0.139414
-0.135357
-0.131409
-0.127563
-0.123814
-0.12016
-0.116595
-0.113118
-0.109726
-0.106417
-0.103188
-0.100039
-0.0969674
-0.0939725
-0.0910529
-0.0882075
-0.085435
-0.0827345
-0.0801047
-0.0775445
-0.0750529
-0.0726286
-0.0702705
-0.0679773
-0.0657477
-0.0635804
-0.061474
-0.0594273
-0.0574387
-0.0555069
-0.0536304
-0.0518077
-0.216879
-0.207981
-0.198522
-0.192869
-0.187062
-0.181332
-0.175897
-0.17068
-0.165653
-0.160806
-0.156121
-0.151587
-0.14719
-0.142922
-0.138773
-0.134736
-0.130806
-0.126976
-0.123243
-0.119602
-0.11605
-0.112586
-0.109205
-0.105907
-0.102689
-0.0995507
-0.09649
-0.0935057
-0.0905967
-0.0877618
-0.085
-0.0823101
-0.0796911
-0.0771417
-0.0746609
-0.0722475
-0.0699002
-0.0676179
-0.0653991
-0.0632427
-0.0611471
-0.0591111
-0.0571332
-0.0552119
-0.0533458
-0.0515333
-0.215458
-0.206672
-0.19739
-0.19176
-0.186008
-0.18034
-0.17496
-0.169795
-0.164817
-0.160013
-0.155368
-0.150868
-0.146503
-0.142262
-0.138138
-0.134123
-0.130212
-0.1264
-0.122682
-0.119056
-0.115518
-0.112066
-0.108697
-0.10541
-0.102204
-0.0990766
-0.0960266
-0.093053
-0.0901547
-0.0873304
-0.0845792
-0.0818999
-0.0792915
-0.0767528
-0.0742826
-0.0718799
-0.0695432
-0.0672715
-0.0650633
-0.0629174
-0.0608323
-0.0588067
-0.0568391
-0.054928
-0.0530719
-0.0512694
-0.213914
-0.20527
-0.196195
-0.190604
-0.184918
-0.179321
-0.174005
-0.168899
-0.163974
-0.159218
-0.154615
-0.150153
-0.145821
-0.141609
-0.137511
-0.133519
-0.129628
-0.125834
-0.122133
-0.118522
-0.114998
-0.111559
-0.108203
-0.104928
-0.101733
-0.0986171
-0.095578
-0.0926152
-0.0897274
-0.0869138
-0.0841731
-0.0815043
-0.0789063
-0.076378
-0.0739183
-0.071526
-0.0691997
-0.0669384
-0.0647405
-0.0626048
-0.0605299
-0.0585143
-0.0565566
-0.0546554
-0.052809
-0.0510161
-0.212268
-0.203793
-0.194953
-0.189414
-0.183805
-0.178287
-0.173041
-0.167998
-0.16313
-0.158425
-0.153867
-0.149444
-0.145147
-0.140966
-0.136894
-0.132926
-0.129057
-0.125282
-0.121598
-0.118003
-0.114493
-0.111067
-0.107724
-0.104461
-0.101278
-0.0981728
-0.0951447
-0.0921926
-0.0893155
-0.0865123
-0.0837819
-0.0811235
-0.0785358
-0.0760178
-0.0735683
-0.0711861
-0.0688699
-0.0666186
-0.0644307
-0.0623049
-0.0602398
-0.058234
-0.0562859
-0.0543941
-0.0525572
-0.0507734
-0.210541
-0.202261
-0.193679
-0.188203
-0.182678
-0.177248
-0.172076
-0.1671
-0.162292
-0.157639
-0.153128
-0.148746
-0.144485
-0.140335
-0.136291
-0.132347
-0.1285
-0.124744
-0.121078
-0.117498
-0.114003
-0.110591
-0.107261
-0.10401
-0.100838
-0.0977446
-0.0947274
-0.0917859
-0.0889192
-0.0861263
-0.0834062
-0.0807579
-0.0781803
-0.0756723
-0.0732327
-0.0708604
-0.068554
-0.0663124
-0.0641342
-0.062018
-0.0599624
-0.0579659
-0.056027
-0.0541444
-0.0523164
-0.0505415
-0.208751
-0.20069
-0.192385
-0.186983
-0.18155
-0.176211
-0.171118
-0.166212
-0.161465
-0.156867
-0.152403
-0.148063
-0.143837
-0.139719
-0.135703
-0.131784
-0.127958
-0.124222
-0.120574
-0.11701
-0.11353
-0.110132
-0.106814
-0.103576
-0.100416
-0.0973328
-0.0943264
-0.0913955
-0.0885391
-0.0857564
-0.0830463
-0.0804079
-0.0778401
-0.0753418
-0.0729118
-0.0705491
-0.0682522
-0.06602
-0.0638511
-0.0617441
-0.0596976
-0.0577101
-0.0557801
-0.0539062
-0.0520868
-0.0503203
-0.206919
-0.199098
-0.191085
-0.185766
-0.180429
-0.175186
-0.170174
-0.165339
-0.160655
-0.156111
-0.151695
-0.147396
-0.143207
-0.139121
-0.135133
-0.131239
-0.127435
-0.123719
-0.120088
-0.11654
-0.113075
-0.10969
-0.106385
-0.103159
-0.10001
-0.0969382
-0.0939424
-0.0910218
-0.0881756
-0.0854028
-0.0827025
-0.0800737
-0.0775154
-0.0750265
-0.0726059
-0.0702524
-0.0679647
-0.0657415
-0.0635815
-0.0614833
-0.0594455
-0.0574666
-0.0555452
-0.0536796
-0.0518684
-0.05011
-0.205066
-0.197502
-0.189792
-0.184561
-0.179325
-0.174179
-0.16925
-0.164487
-0.159866
-0.155377
-0.151008
-0.146751
-0.142598
-0.138543
-0.134583
-0.130713
-0.126931
-0.123234
-0.11962
-0.116089
-0.112638
-0.109266
-0.105974
-0.10276
-0.0996222
-0.0965612
-0.0935759
-0.0906654
-0.087829
-0.0850659
-0.082375
-0.0797556
-0.0772065
-0.0747267
-0.0723151
-0.0699704
-0.0676915
-0.065477
-0.0633256
-0.0612359
-0.0592064
-0.0572357
-0.0553223
-0.0534647
-0.0516613
-0.203209
-0.195917
-0.188517
-0.18338
-0.178246
-0.173199
-0.168353
-0.163661
-0.159103
-0.154667
-0.150345
-0.146129
-0.142011
-0.137987
-0.134054
-0.130208
-0.126447
-0.122769
-0.119173
-0.115657
-0.11222
-0.108862
-0.105582
-0.102379
-0.0992528
-0.0962024
-0.0932272
-0.0903266
-0.0874998
-0.084746
-0.0820643
-0.0794539
-0.0769136
-0.0744426
-0.0720396
-0.0697034
-0.0674329
-0.0652267
-0.0630834
-0.0610018
-0.0589802
-0.0570174
-0.0551116
-0.0532616
-0.0514656
-0.201367
-0.194357
-0.18727
-0.18223
-0.177199
-0.172251
-0.167487
-0.162866
-0.158368
-0.153986
-0.14971
-0.145532
-0.141449
-0.137456
-0.133549
-0.129726
-0.125986
-0.122326
-0.118746
-0.115246
-0.111823
-0.108478
-0.10521
-0.102018
-0.0989024
-0.0958622
-0.0928969
-0.0900058
-0.0871882
-0.0844434
-0.0817705
-0.0791687
-0.076637
-0.0741743
-0.0717795
-0.0694515
-0.0671889
-0.0649906
-0.0628551
-0.0607811
-0.0587671
-0.0568116
-0.0549132
-0.0530702
-0.0512813
-0.199557
-0.192836
-0.186061
-0.18112
-0.176192
-0.171341
-0.166658
-0.162105
-0.157667
-0.153336
-0.149103
-0.144964
-0.140914
-0.13695
-0.133068
-0.129268
-0.125547
-0.121906
-0.118342
-0.114856
-0.111447
-0.108114
-0.104857
-0.101677
-0.0985715
-0.0955412
-0.0925853
-0.0897033
-0.0868946
-0.0841584
-0.081494
-0.0789004
-0.0763768
-0.0739221
-0.0715351
-0.0692147
-0.0669598
-0.0647689
-0.0626408
-0.0605739
-0.058567
-0.0566185
-0.054727
-0.0528907
-0.0511084
-0.197797
-0.191367
-0.184899
-0.180056
-0.17523
-0.170474
-0.165869
-0.161383
-0.157002
-0.152719
-0.148529
-0.144426
-0.140408
-0.136471
-0.132614
-0.128835
-0.125134
-0.121509
-0.117961
-0.114489
-0.111092
-0.107772
-0.104526
-0.101356
-0.0982606
-0.0952397
-0.0922928
-0.0894196
-0.0866193
-0.0838913
-0.0812349
-0.0786492
-0.0761332
-0.073686
-0.0713064
-0.0689933
-0.0667455
-0.0645616
-0.0624404
-0.0603804
-0.0583801
-0.0564382
-0.054553
-0.0527231
-0.0509469
-0.1961
-0.189961
-0.183793
-0.179047
-0.174318
-0.169654
-0.165124
-0.160701
-0.156375
-0.152139
-0.147989
-0.143921
-0.139932
-0.136021
-0.132187
-0.128429
-0.124745
-0.121137
-0.117603
-0.114145
-0.11076
-0.107451
-0.104216
-0.101056
-0.09797
-0.0949581
-0.0920198
-0.0891548
-0.0863626
-0.0836424
-0.0809935
-0.0784151
-0.0759064
-0.0734662
-0.0710936
-0.0687873
-0.0665462
-0.0643689
-0.0622542
-0.0602005
-0.0582065
-0.0562706
-0.0543915
-0.0525674
-0.050797
-0.194482
-0.188627
-0.182748
-0.178096
-0.173462
-0.168885
-0.164426
-0.160064
-0.155789
-0.151597
-0.147484
-0.143448
-0.139488
-0.135602
-0.131789
-0.12805
-0.124383
-0.12079
-0.117271
-0.113824
-0.110452
-0.107153
-0.103928
-0.100777
-0.0977003
-0.0946968
-0.0917666
-0.0889094
-0.0861246
-0.0834117
-0.0807699
-0.0781985
-0.0756965
-0.0732629
-0.0708968
-0.0685969
-0.066362
-0.0641908
-0.062082
-0.0600343
-0.058046
-0.0561158
-0.0542422
-0.0524236
-0.0506585
-0.192956
-0.187376
-0.181771
-0.17721
-0.172665
-0.16817
-0.163779
-0.159473
-0.155246
-0.151094
-0.147017
-0.143011
-0.139077
-0.135214
-0.131421
-0.127699
-0.124049
-0.12047
-0.116963
-0.113529
-0.110167
-0.106878
-0.103663
-0.100521
-0.0974517
-0.0944561
-0.0915335
-0.0886835
-0.0859057
-0.0831996
-0.0805644
-0.0779994
-0.0755036
-0.0730762
-0.0707161
-0.068422
-0.0661929
-0.0640274
-0.0619241
-0.0598818
-0.0578989
-0.0559739
-0.0541054
-0.0522918
-0.0505316
-0.191533
-0.186216
-0.180868
-0.176393
-0.171931
-0.167513
-0.163184
-0.158931
-0.154747
-0.150634
-0.146588
-0.14261
-0.1387
-0.134858
-0.131084
-0.127378
-0.123742
-0.120177
-0.116682
-0.113258
-0.109906
-0.106627
-0.10342
-0.100286
-0.0972247
-0.0942364
-0.0913207
-0.0884774
-0.0857061
-0.0830062
-0.0803771
-0.0778179
-0.075328
-0.0729062
-0.0705515
-0.0682629
-0.066039
-0.0638787
-0.0617805
-0.0597431
-0.057765
-0.0558448
-0.053981
-0.0521719
-0.0504161
-0.190224
-0.185153
-0.180043
-0.175648
-0.171264
-0.166916
-0.162644
-0.158438
-0.154295
-0.150216
-0.1462
-0.142247
-0.138358
-0.134535
-0.130778
-0.127087
-0.123465
-0.119911
-0.116427
-0.113013
-0.10967
-0.106399
-0.1032
-0.100074
-0.0970196
-0.0940379
-0.0911286
-0.0882914
-0.0855259
-0.0828317
-0.0802081
-0.0776543
-0.0751696
-0.0727529
-0.0704032
-0.0681195
-0.0659004
-0.0637447
-0.0616511
-0.0596182
-0.0576445
-0.0557286
-0.053869
-0.052064
-0.0503123
-0.189039
-0.184193
-0.179301
-0.174979
-0.170665
-0.166381
-0.16216
-0.157997
-0.153891
-0.149842
-0.145852
-0.141922
-0.138053
-0.134247
-0.130504
-0.126827
-0.123216
-0.119673
-0.116199
-0.112794
-0.10946
-0.106196
-0.103004
-0.0998844
-0.0968365
-0.0938608
-0.0909572
-0.0881255
-0.0853654
-0.0826762
-0.0800576
-0.0775086
-0.0750286
-0.0726165
-0.0702713
-0.0679919
-0.065777
-0.0636256
-0.061536
-0.0595071
-0.0575374
-0.0556253
-0.0537694
-0.0519681
-0.0502199
-0.187984
-0.183343
-0.178645
-0.174388
-0.170136
-0.165909
-0.161734
-0.157609
-0.153535
-0.149513
-0.145546
-0.141636
-0.137784
-0.133993
-0.130264
-0.126598
-0.122998
-0.119465
-0.115999
-0.112602
-0.109275
-0.106018
-0.102832
-0.0997181
-0.0966758
-0.0937054
-0.0908069
-0.08798
-0.0852245
-0.08254
-0.0799257
-0.077381
-0.074905
-0.072497
-0.0701557
-0.0678801
-0.0656691
-0.0635212
-0.0614353
-0.0594099
-0.0574436
-0.0555349
-0.0536823
-0.0518842
-0.0501392
-0.187069
-0.182607
-0.178078
-0.173878
-0.16968
-0.165502
-0.161367
-0.157275
-0.153228
-0.14923
-0.145283
-0.141389
-0.137553
-0.133774
-0.130057
-0.126401
-0.12281
-0.119285
-0.115826
-0.112436
-0.109115
-0.105864
-0.102684
-0.0995752
-0.0965377
-0.0935719
-0.0906778
-0.0878551
-0.0851036
-0.0824229
-0.0798124
-0.0772714
-0.074799
-0.0723944
-0.0700565
-0.0677843
-0.0655765
-0.0634318
-0.061349
-0.0593266
-0.0573632
-0.0554574
-0.0536076
-0.0518123
-0.0500699
-0.186297
-0.181988
-0.177602
-0.17345
-0.169299
-0.165162
-0.16106
-0.156995
-0.152972
-0.148993
-0.145062
-0.141183
-0.137359
-0.133592
-0.129883
-0.126237
-0.122653
-0.119134
-0.115682
-0.112298
-0.108982
-0.105736
-0.102561
-0.0994558
-0.0964224
-0.0934604
-0.0905699
-0.0877508
-0.0850027
-0.0823253
-0.079718
-0.07718
-0.0747106
-0.0723089
-0.0699739
-0.0677044
-0.0654993
-0.0633572
-0.061277
-0.0592571
-0.0572962
-0.0553928
-0.0535454
-0.0517524
-0.0500123
-0.185674
-0.181489
-0.177219
-0.173106
-0.168992
-0.164889
-0.160813
-0.156771
-0.152766
-0.148803
-0.144886
-0.141018
-0.137204
-0.133445
-0.129744
-0.126104
-0.122527
-0.119014
-0.115567
-0.112187
-0.108875
-0.105633
-0.102461
-0.0993602
-0.09633
-0.0933711
-0.0904836
-0.0876673
-0.0849219
-0.0822471
-0.0796423
-0.0771068
-0.0746399
-0.0722405
-0.0699077
-0.0676405
-0.0654375
-0.0632976
-0.0612194
-0.0592016
-0.0572427
-0.0553412
-0.0534956
-0.0517045
-0.0499661
-0.185204
-0.181113
-0.176931
-0.172848
-0.168762
-0.164683
-0.160628
-0.156602
-0.152611
-0.14866
-0.144753
-0.140894
-0.137087
-0.133335
-0.12964
-0.126005
-0.122432
-0.118923
-0.11548
-0.112104
-0.108795
-0.105556
-0.102387
-0.0992883
-0.0962606
-0.0933041
-0.0904188
-0.0876046
-0.0848613
-0.0821885
-0.0795856
-0.077052
-0.0745868
-0.0721892
-0.0698581
-0.0675925
-0.0653912
-0.0632529
-0.0611763
-0.0591599
-0.0572025
-0.0553025
-0.0534583
-0.0516685
-0.0499315
-0.18489
-0.180862
-0.176739
-0.172675
-0.168608
-0.164546
-0.160505
-0.15649
-0.152508
-0.148565
-0.144664
-0.140811
-0.137009
-0.133261
-0.12957
-0.125939
-0.122369
-0.118863
-0.115422
-0.112048
-0.108742
-0.105505
-0.102337
-0.0992405
-0.0962144
-0.0932594
-0.0903756
-0.0875628
-0.0848209
-0.0821494
-0.0795478
-0.0770154
-0.0745514
-0.072155
-0.0698251
-0.0675606
-0.0653603
-0.0632231
-0.0611475
-0.0591322
-0.0571757
-0.0552767
-0.0534335
-0.0516446
-0.0499085
-0.184732
-0.180736
-0.176642
-0.172589
-0.168531
-0.164477
-0.160443
-0.156434
-0.152457
-0.148517
-0.14462
-0.14077
-0.13697
-0.133225
-0.129536
-0.125906
-0.122338
-0.118833
-0.115393
-0.11202
-0.108715
-0.105479
-0.102313
-0.0992165
-0.0961913
-0.0932371
-0.090354
-0.087542
-0.0848007
-0.0821299
-0.0795289
-0.0769971
-0.0745338
-0.0721379
-0.0698086
-0.0675446
-0.0653449
-0.0632082
-0.0611331
-0.0591183
-0.0571624
-0.0552638
-0.0534211
-0.0516326
-0.049897
)
;

boundaryField
{
    inlet
    {
        type            zeroGradient;
    }
    outlet
    {
        type            fixedValue;
        value           nonuniform 0();
    }
    cylinder
    {
        type            zeroGradient;
    }
    top
    {
        type            symmetryPlane;
    }
    bottom
    {
        type            symmetryPlane;
    }
    defaultFaces
    {
        type            empty;
    }
    procBoundary6to2
    {
        type            processor;
        value           nonuniform List<scalar> 
58
(
-0.187798
-0.175672
-0.177745
-0.177745
-0.176252
-0.176252
-0.173282
-0.173282
-0.170497
-0.170497
-0.154786
-0.16918
-0.167149
-0.166323
-0.16514
-0.163373
-0.161265
-0.158871
-0.156257
-0.153478
-0.150575
-0.147582
-0.144527
-0.141429
-0.138306
-0.135173
-0.132039
-0.128914
-0.125806
-0.122718
-0.119657
-0.116627
-0.113629
-0.110668
-0.107744
-0.104861
-0.102018
-0.0992189
-0.0964634
-0.0937528
-0.0910879
-0.0884696
-0.0858984
-0.083375
-0.0808997
-0.078473
-0.0760949
-0.0737658
-0.0714857
-0.0692546
-0.0670723
-0.0649387
-0.0628536
-0.0608166
-0.0588272
-0.0568851
-0.0549896
-0.0531401
)
;
    }
    procBoundary6to3
    {
        type            processor;
        value           uniform -0.0512587;
    }
    procBoundary6to5
    {
        type            processor;
        value           nonuniform List<scalar> 
58
(
-0.203863
-0.203863
-0.19813
-0.199631
-0.201134
-0.201134
-0.212887
-0.211941
-0.211008
-0.211008
-0.228057
-0.228039
-0.22799
-0.22799
-0.24177
-0.241464
-0.241134
-0.240782
-0.240782
-0.255467
-0.254959
-0.254431
-0.253885
-0.253326
-0.253326
-0.266875
-0.266192
-0.265508
-0.264826
-0.264149
-0.26348
-0.26348
-0.276705
-0.275969
-0.275252
-0.274558
-0.273888
-0.273246
-0.272634
-0.272054
-0.27151
-0.27151
-0.284436
-0.283917
-0.283443
-0.283017
-0.282639
-0.282313
-0.282039
-0.281818
-0.281652
-0.281541
-0.281485
-0.168177
-0.169583
-0.170662
-0.170274
-0.170264
)
;
    }
    procBoundary6to7
    {
        type            processor;
        value           nonuniform List<scalar> 
52
(
-0.0511829
-0.0511086
-0.0510357
-0.0509645
-0.0508958
-0.0508281
-0.0507517
-0.050665
-0.0506562
-0.0509365
-0.0507071
-0.0502979
-0.0499264
-0.0495878
-0.0492573
-0.0506927
-0.0506927
-0.0503635
-0.0500435
-0.0497326