/*--------------------------------*- C++ -*----------------------------------*\
  =========                 |
  \\      /  F ield         | OpenFOAM: The Open Source CFD Toolbox
   \\    /   O peration     | Website:  https://openfoam.org
    \\  /    A nd           | Version:  7
     \\/     M anipulation  |
\*---------------------------------------------------------------------------*/
FoamFile
{
    version     2.0;
    format      ascii;
    class       surfaceScalarField;
    location    "20";
    object      phi;
}
// * * * * * * * * * * * * * * * * * * * * * * * * * * * * * * * * * * * * * //

dimensions      [0 3 -1 0 0 0 0];

internalField   nonuniform List<scalar> 
5141
(
0.00262471
-0.000511807
0.00261713
-0.000515591
0.00260976
-0.000518891
0.00260258
-0.000521722
0.0025956
-0.000524102
0.0025888
-0.000526047
0.00258219
-0.000527575
0.00257575
-0.000528703
0.00256949
-0.000529448
0.0025634
-0.000529828
0.00255748
-0.00052986
0.00255173
-0.000529564
0.00254613
-0.000528956
0.00254069
-0.000528056
-0.00052688
0.00312772
6.63155e-05
-0.00313891
0.00311496
3.57099e-05
0.003101
5.38775e-06
0.00308608
-2.56591e-05
0.0030706
-5.62039e-05
0.00305484
-8.57206e-05
0.00303903
-0.000113997
0.0030233
-0.00014094
0.00300776
-0.000166549
0.00299246
-0.000190857
0.00297745
-0.000213915
0.00296275
-0.00023578
0.00294838
-0.000256508
0.00293434
-0.000276154
0.00292064
-0.000294771
0.00290728
-0.000312407
0.00289425
-0.000329107
0.00288156
-0.000344912
0.00286919
-0.000359861
0.00285714
-0.000373988
0.0028454
-0.000387325
0.00283396
-0.000399899
0.00282282
-0.000411737
0.00281197
-0.000422863
0.00280139
-0.000433298
0.00279109
-0.000443063
0.00278105
-0.000452176
0.00277127
-0.000460656
0.00276173
-0.000468518
0.00275244
-0.000475781
0.00274339
-0.000482459
0.00273457
-0.000488569
0.00272597
-0.000494126
0.00271759
-0.000499145
0.00270943
-0.000503644
0.00270148
-0.000507637
0.00269373
-0.00051114
0.00268617
-0.000514171
0.00267882
-0.000516746
0.00267165
-0.000518882
0.00266467
-0.000520596
0.00265788
-0.000521905
0.00265126
-0.000522828
0.00264481
-0.000523382
0.00263854
-0.000523586
0.00263243
-0.000523456
0.00262649
-0.000523012
0.0026207
-0.000522272
-0.000521254
0.00322034
7.71371e-05
-0.00323116
0.00320811
4.7933e-05
0.00319477
1.87303e-05
0.00318044
-1.13275e-05
0.00316544
-4.12013e-05
0.00315004
-7.03206e-05
0.00313446
-9.84158e-05
0.00311885
-0.000125338
0.00310334
-0.000151038
0.003088
-0.000175515
0.00307288
-0.000198797
0.00305803
-0.000220922
0.00304345
-0.000241934
0.00302918
-0.000261881
0.00301522
-0.000280808
0.00300157
-0.000298759
0.00298824
-0.000315775
0.00297522
-0.000331896
0.00296252
-0.000347157
0.00295012
-0.000361591
0.00293802
-0.000375229
0.00292622
-0.000388099
0.00291471
-0.000400226
0.00290348
-0.000411634
0.00289253
-0.000422344
0.00288185
-0.000432378
0.00287142
-0.000441753
0.00286125
-0.000450488
0.00285134
-0.0004586
0.00284166
-0.000466105
0.00283222
-0.000473021
0.00282301
-0.000479362
0.00281403
-0.000485144
0.00280527
-0.000490385
0.00279673
-0.000495098
0.00278839
-0.000499302
0.00278026
-0.000503011
0.00277234
-0.000506244
0.00276461
-0.000509015
0.00275707
-0.000511344
0.00274972
-0.000513246
0.00274255
-0.00051474
0.00273557
-0.000515844
0.00272876
-0.000516575
0.00272213
-0.000516952
0.00271566
-0.000516992
0.00270937
-0.000516715
0.00270323
-0.000516138
-0.00051528
0.00331458
8.7614e-05
-0.00332506
0.00330287
5.96481e-05
0.00329012
3.14819e-05
0.00327638
2.41135e-06
0.0032619
-2.67217e-05
0.00324692
-5.53416e-05
0.00323165
-8.31453e-05
0.00321625
-0.000109942
0.00320085
-0.000135639
0.00318554
-0.000160206
0.00317039
-0.000183643
0.00315544
-0.00020597
0.00314072
-0.000227219
0.00312627
-0.000247426
0.00311209
-0.000266629
0.0030982
-0.000284866
0.0030846
-0.000302175
0.00307129
-0.00031859
0.00305828
-0.000334145
0.00304556
-0.000348872
0.00303313
-0.0003628
0.00302099
-0.000375955
0.00300913
-0.000388363
0.00299754
-0.000400046
0.00298622
-0.000411027
0.00297517
-0.000421324
0.00296437
-0.000430957
0.00295383
-0.000439945
0.00294353
-0.000448304
0.00293348
-0.00045605
0.00292366
-0.000463202
0.00291407
-0.000469773
0.00290471
-0.000475782
0.00289556
-0.000481243
0.00288664
-0.000486172
0.00287792
-0.000490587
0.00286942
-0.000494504
0.00286111
-0.000497939
0.002853
-0.000500909
0.00284509
-0.000503431
0.00283737
-0.000505524
0.00282983
-0.000507205
0.00282248
-0.000508491
0.00281531
-0.000509401
0.00280831
-0.000509953
0.00280148
-0.000510166
0.00279483
-0.000510058
0.00278833
-0.000509647
-0.000508951
0.00341047
9.77512e-05
-0.00342061
0.00339924
7.08783e-05
0.00338706
4.36658e-05
0.00337391
1.55581e-05
0.00335998
-1.27926e-05
0.00334548
-4.08342e-05
0.00333058
-6.82511e-05
0.00331546
-9.48238e-05
0.00330025
-0.000120428
0.00328505
-0.000145002
0.00326993
-0.000168523
0.00325495
-0.000190991
0.00324015
-0.000212423
0.00322557
-0.000232845
0.00321123
-0.000252285
0.00319714
-0.000270775
0.00318331
-0.000288347
0.00316975
-0.000305032
0.00315647
-0.000320861
0.00314346
-0.000335863
0.00313072
-0.000350066
0.00311826
-0.000363493
0.00310607
-0.000376171
0.00309414
-0.00038812
0.00308248
-0.000399362
0.00307107
-0.000409916
0.00305991
-0.000419802
0.00304901
-0.000429038
0.00303834
-0.00043764
0.00302792
-0.000445625
0.00301772
-0.000453009
0.00300776
-0.00045981
0.00299802
-0.000466043
0.0029885
-0.000471724
0.0029792
-0.000476869
0.00297011
-0.000481495
0.00296122
-0.000485618
0.00295254
-0.000489256
0.00294406
-0.000492425
0.00293577
-0.000495143
0.00292767
-0.000497427
0.00291976
-0.000499296
0.00291204
-0.000500766
0.00290449
-0.000501858
0.00289713
-0.000502587
0.00288994
-0.000502974
0.00288292
-0.000503037
0.00287606
-0.000502794
-0.000502264
0.00350802
0.000107544
-0.00351781
0.00349726
8.16389e-05
0.00348562
5.53025e-05
0.00347306
2.81185e-05
0.0034597
5.69169e-07
0.0034457
-2.68371e-05
0.00343124
-5.3788e-05
0.00341647
-8.005e-05
0.00340151
-0.000105475
0.00338649
-0.000129975
0.00337147
-0.000153506
0.00335653
-0.00017605
0.00334171
-0.000197608
0.00332706
-0.000218195
0.00331261
-0.000237828
0.00329836
-0.000256533
0.00328435
-0.000274336
0.00327059
-0.000291263
0.00325707
-0.000307342
0.0032438
-0.000322598
0.00323079
-0.000337056
0.00321804
-0.00035074
0.00320554
-0.000363673
0.0031933
-0.000375876
0.00318131
-0.00038737
0.00316956
-0.000398173
0.00315806
-0.000408304
0.00314681
-0.000417781
0.00313579
-0.000426621
0.003125
-0.000434839
0.00311445
-0.000442454
0.00310412
-0.00044948
0.00309401
-0.000455935
0.00308412
-0.000461833
0.00307444
-0.000467192
0.00306498
-0.000472029
0.00305572
-0.000476358
0.00304666
-0.000480199
0.0030378
-0.000483567
0.00302914
-0.00048648
0.00302067
-0.000488957
0.00301238
-0.000491014
0.00300429
-0.000492669
0.00299637
-0.000493943
0.00298864
-0.000494851
0.00298108
-0.000495414
0.00297369
-0.00049565
0.00296647
-0.000495577
-0.000495214
0.00360723
0.000116982
-0.00361667
0.00359693
9.19381e-05
0.00358583
6.64077e-05
0.00357384
4.01008e-05
0.00356106
1.33543e-05
0.0035476
-1.33785e-05
0.00353361
-3.98006e-05
0.00351924
-6.56764e-05
0.00350461
-9.08419e-05
0.00348982
-0.000115191
0.00347498
-0.000138659
0.00346014
-0.000161212
0.00344537
-0.000182838
0.00343071
-0.000203535
0.0034162
-0.000223315
0.00340186
-0.000242194
0.00338771
-0.000260191
0.00337378
-0.000277328
0.00336006
-0.000293628
0.00334658
-0.000309113
0.00333333
-0.000323805
0.00332031
-0.000337727
0.00330754
-0.0003509
0.00329501
-0.000363342
0.00328271
-0.000375075
0.00327065
-0.000386116
0.00325883
-0.000396482
0.00324724
-0.000406192
0.00323588
-0.000415262
0.00322475
-0.000423708
0.00321385
-0.000431547
0.00320316
-0.000438794
0.00319269
-0.000445467
0.00318244
-0.00045158
0.0031724
-0.00045715
0.00316256
-0.000462194
0.00315293
-0.000466729
0.00314351
-0.000470771
0.00313428
-0.000474337
0.00312524
-0.000477445
0.0031164
-0.000480113
0.00310774
-0.000482359
0.00309927
-0.0004842
0.00309099
-0.000485656
0.00308288
-0.000486744
0.00307495
-0.000487484
0.00306719
-0.000487893
0.00305961
-0.000487991
-0.000487797
0.00370811
0.000126049
-0.00371718
0.00369827
0.000101778
0.00368769
7.69924e-05
0.00367627
5.15134e-05
0.00366407
2.55586e-05
0.00365117
-4.78479e-07
0.00363769
-2.63244e-05
0.00362377
-5.17505e-05
0.00360951
-7.65859e-05
0.00359503
-0.000100711
0.00358042
-0.000124046
0.00356575
-0.000146543
0.00355108
-0.000168173
0.00353648
-0.000188926
0.00352196
-0.000208803
0.00350758
-0.000227811
0.00349335
-0.000245962
0.0034793
-0.000263274
0.00346543
-0.000279763
0.00345177
-0.000295449
0.00343831
-0.000310352
0.00342508
-0.000324489
0.00341206
-0.000337882
0.00339926
-0.000350547
0.00338669
-0.000362503
0.00337434
-0.000373768
0.00336222
-0.000384359
0.00335032
-0.000394291
0.00333864
-0.000403582
0.00332718
-0.000412248
0.00331594
-0.000420304
0.00330491
-0.000427767
0.00329409
-0.000434651
0.00328349
-0.000440974
0.00327309
-0.000446752
0.0032629
-0.000452001
0.0032529
-0.000456737
0.00324311
-0.000460978
0.00323351
-0.00046474
0.00322411
-0.000468042
0.0032149
-0.0004709
0.00320587
-0.000473334
0.00319703
-0.00047536
0.00318838
-0.000476998
0.0031799
-0.000478267
0.0031716
-0.000479183
0.00316347
-0.000479767
0.00315552
-0.000480038
-0.000480013
0.00381066
0.000134724
-0.00381934
0.00380129
0.000111155
0.00379122
8.7063e-05
0.00378036
6.23636e-05
0.00376874
3.71814e-05
0.00375641
1.18494e-05
0.00374348
-1.33866e-05
0.00373004
-3.8312e-05
0.00371621
-6.27558e-05
0.00370209
-8.65908e-05
0.00368777
-0.000109726
0.00367333
-0.000132101
0.00365883
-0.000153675
0.00364433
-0.000174428
0.00362988
-0.000194349
0.0036155
-0.000213439
0.00360124
-0.000231702
0.00358712
-0.00024915
0.00357315
-0.000265794
0.00355935
-0.00028165
0.00354574
-0.000296735
0.00353231
-0.000311064
0.00351908
-0.000324654
0.00350606
-0.000337522
0.00349324
-0.000349685
0.00348063
-0.000361158
0.00346823
-0.000371959
0.00345604
-0.000382102
0.00344406
-0.000391603
0.00343229
-0.000400478
0.00342073
-0.000408743
0.00340937
-0.000416412
0.00339823
-0.000423503
0.00338728
-0.00043003
0.00337654
-0.000436009
0.003366
-0.000441458
0.00335565
-0.000446392
0.0033455
-0.000450828
0.00333555
-0.000454784
0.00332578
-0.000458277
0.0033162
-0.000461324
0.00330681
-0.000463944
0.00329761
-0.000466154
0.00328858
-0.000467974
0.00327974
-0.000469421
0.00327107
-0.000470514
0.00326257
-0.000471273
0.00325425
-0.000471715
-0.00047186
0.00391489
0.000142985
-0.00392315
0.00390598
0.000120062
0.00389642
9.6621e-05
0.00388613
7.26566e-05
0.00387509
4.82229e-05
0.00386334
2.35959e-05
0.00385096
-1.00806e-06
0.00383804
-2.53929e-05
0.00382468
-4.93934e-05
0.00381097
-7.28796e-05
0.003797
-9.57538e-05
0.00378284
-0.000117945
0.00376857
-0.000139404
0.00375424
-0.000160099
0.0037399
-0.000180012
0.0037256
-0.000199134
0.00371136
-0.000217464
0.00369722
-0.000235007
0.00368319
-0.000251769
0.0036693
-0.000267762
0.00365557
-0.000282999
0.003642
-0.000297491
0.0036286
-0.000311255
0.00361538
-0.000324304
0.00360234
-0.000336652
0.0035895
-0.000348316
0.00357685
-0.00035931
0.0035644
-0.000369649
0.00355215
-0.000379347
0.00354009
-0.00038842
0.00352823
-0.000396883
0.00351657
-0.000404751
0.0035051
-0.000412038
0.00349383
-0.000418762
0.00348276
-0.000424937
0.00347188
-0.000430579
0.0034612
-0.000435706
0.0034507
-0.000440333
0.0034404
-0.000444478
0.00343028
-0.000448158
0.00342034
-0.000451391
0.00341059
-0.000454194
0.00340103
-0.000456586
0.00339164
-0.000458586
0.00338243
-0.000460211
0.00337339
-0.00046148
0.00336453
-0.000462412
0.00335584
-0.000463026
-0.000463341
0.00402078
0.000150806
-0.0040286
0.00401236
0.000128488
0.00400331
0.000105664
0.00399358
8.23948e-05
0.00398311
5.86839e-05
0.00397196
3.47551e-05
0.00396015
1.07956e-05
0.00394778
-1.30193e-05
0.00393492
-3.65341e-05
0.00392166
-5.96206e-05
0.00390808
-8.21775e-05
0.00389427
-0.000104127
0.00388028
-0.000125413
0.00386617
-0.000145995
0.00385201
-0.000165847
0.00383783
-0.000184952
0.00382366
-0.000203303
0.00380956
-0.000220898
0.00379553
-0.000237739
0.0037816
-0.000253833
0.00376778
-0.000269188
0.00375411
-0.000283814
0.00374058
-0.000297724
0.0037272
-0.000310929
0.00371399
-0.000323441
0.00370095
-0.000335276
0.00368809
-0.000346445
0.0036754
-0.000356963
0.00366289
-0.000366843
0.00365057
-0.0003761
0.00363844
-0.000384749
0.00362649
-0.000392803
0.00361473
-0.000400278
0.00360316
-0.000407188
0.00359177
-0.00041355
0.00358057
-0.00041938
0.00356956
-0.000424692
0.00355873
-0.000429504
0.00354809
-0.000433833
0.00353762
-0.000437696
0.00352734
-0.000441111
0.00351724
-0.000444094
0.00350732
-0.000446665
0.00349758
-0.000448841
0.00348801
-0.000450642
0.00347861
-0.000452085
0.00346939
-0.00045319
0.00346034
-0.000453974
-0.000454458
0.00412835
0.000158163
-0.00413571
0.00412042
0.000136417
0.0041119
0.000114186
0.00410272
9.1578e-05
0.00409284
6.85643e-05
0.00408227
4.53226e-05
0.00407105
2.20126e-05
0.00405924
-1.21167e-06
0.00404692
-2.42071e-05
0.00403415
-4.68508e-05
0.00402101
-6.90411e-05
0.00400758
-9.0697e-05
0.00399392
-0.000111756
0.0039801
-0.000132171
0.00396616
-0.00015191
0.00395216
-0.000170948
0.00393813
-0.000189272
0.0039241
-0.000206875
0.00391012
-0.000223754
0.0038962
-0.000239911
0.00388236
-0.00025535
0.00386862
-0.000270078
0.003855
-0.000284104
0.00384151
-0.000297438
0.00382816
-0.00031009
0.00381496
-0.000322072
0.00380191
-0.000333396
0.00378902
-0.000344074
0.0037763
-0.000354119
0.00376374
-0.000363545
0.00375136
-0.000372365
0.00373915
-0.000380593
0.00372711
-0.000388243
0.00371525
-0.00039533
0.00370357
-0.00040187
0.00369207
-0.000407877
0.00368075
-0.000413367
0.0036696
-0.000418358
0.00365863
-0.000422864
0.00364784
-0.000426904
0.00363722
-0.000430495
0.00362678
-0.000433654
0.00361652
-0.0004364
0.00360643
-0.00043875
0.00359651
-0.000440722
0.00358676
-0.000442337
0.00357718
-0.000443611
0.00356777
-0.000444565
-0.000445216
0.00423759
0.000165029
-0.00424446
0.00423017
0.000143834
0.00422218
0.000122177
0.00421356
0.000100203
0.00420426
7.78627e-05
0.00419429
5.52948e-05
0.00418366
3.26341e-05
0.00417244
1.00139e-05
0.00416067
-1.24366e-05
0.00414842
-3.46019e-05
0.00413576
-5.63829e-05
0.00412276
-7.76974e-05
0.00410948
-9.84793e-05
0.00409599
-0.000118677
0.00408233
-0.000138252
0.00406856
-0.000157174
0.00405471
-0.000175425
0.00404083
-0.000192992
0.00402694
-0.000209867
0.00401308
-0.000226047
0.00399926
-0.000241533
0.00398551
-0.000256329
0.00397185
-0.000270441
0.00395828
-0.000283874
0.00394483
-0.000296639
0.0039315
-0.000308744
0.00391831
-0.0003202
0.00390525
-0.000331017
0.00389234
-0.000341208
0.00387958
-0.000350785
0.00386697
-0.000359761
0.00385453
-0.000368148
0.00384225
-0.00037596
0.00383013
-0.000383211
0.00381817
-0.000389917
0.00380639
-0.000396092
0.00379477
-0.000401751
0.00378333
-0.000406911
0.00377205
-0.000411587
0.00376094
-0.000415797
0.00375
-0.000419558
0.00373924
-0.000422887
0.00372864
-0.000425802
0.00371821
-0.000428321
0.00370795
-0.000430462
0.00369786
-0.000432244
0.00368793
-0.000433685
0.00367817
-0.000434804
-0.00043562
0.0043485
0.000171378
-0.00435485
0.00434162
0.000150721
0.00433417
0.000129626
0.00432611
0.000108264
0.00431739
8.65763e-05
0.00430802
6.46682e-05
0.004298
4.26528e-05
0.00428737
2.06445e-05
0.00427618
-1.2421e-06
0.00426447
-2.29004e-05
0.00425233
-4.42358e-05
0.0042398
-6.51671e-05
0.00422694
-8.56266e-05
0.00421383
-0.000105559
0.0042005
-0.000124922
0.004187
-0.000143682
0.00417339
-0.000161813
0.0041597
-0.000179299
0.00414596
-0.000196127
0.0041322
-0.00021229
0.00411846
-0.000227786
0.00410474
-0.000242615
0.00409108
-0.000256778
0.00407749
-0.000270281
0.00406398
-0.000283129
0.00405056
-0.000295331
0.00403726
-0.000306894
0.00402407
-0.000317829
0.00401101
-0.000328145
0.00399807
-0.000337854
0.00398528
-0.000346967
0.00397263
-0.000355496
0.00396012
-0.000363455
0.00394777
-0.000370857
0.00393557
-0.000377716
0.00392352
-0.000384047
0.00391164
-0.000389864
0.00389991
-0.000395183
0.00388834
-0.00040002
0.00387694
-0.000404392
0.00386569
-0.000408315
0.00385461
-0.000411807
0.0038437
-0.000414885
0.00383295
-0.000417567
0.00382236
-0.000419872
0.00381193
-0.000421817
0.00380166
-0.000423421
0.00379156
-0.000424702
-0.00042568
0.00446109
0.000177184
-0.0044669
0.00445476
0.000157058
0.00444786
0.000136519
0.00444037
0.000115754
0.00443225
9.47004e-05
0.00442348
7.34388e-05
0.00441407
5.20628e-05
0.00440404
3.06698e-05
0.00439344
9.36043e-06
0.00438231
-1.17684e-05
0.0043707
-3.26281e-05
0.00435867
-5.31399e-05
0.00434628
-7.32364e-05
0.00433359
-9.28609e-05
0.00432063
-0.000111967
0.00430747
-0.000130518
0.00429414
-0.000148485
0.00428069
-0.000165846
0.00426714
-0.000182585
0.00425355
-0.000198691
0.00423992
-0.000214158
0.00422629
-0.000228983
0.00421267
-0.000243164
0.00419909
-0.000256703
0.00418557
-0.000269606
0.00417211
-0.000281876
0.00415874
-0.00029352
0.00414546
-0.000304547
0.00413228
-0.000314966
0.00411921
-0.000324785
0.00410626
-0.000334016
0.00409343
-0.00034267
0.00408074
-0.000350759
0.00406818
-0.000358296
0.00405575
-0.000365294
0.00404347
-0.000371767
0.00403134
-0.000377729
0.00401935
-0.000383197
0.00400752
-0.000388184
0.00399583
-0.000392709
0.00398431
-0.000396785
0.00397293
-0.000400432
0.00396171
-0.000403666
0.00395065
-0.000406505
0.00393974
-0.000408967
0.003929
-0.000411069
0.00391841
-0.000412831
0.00390797
-0.00041427
-0.000415405
0.00457537
0.000182423
-0.00458061
0.0045696
0.000162826
0.00456328
0.000142842
0.00455637
0.000122662
0.00454884
0.000102229
0.00454068
8.16017e-05
0.00453188
6.08584e-05
0.00452247
4.00812e-05
0.00451247
1.9358e-05
0.00450193
-1.22422e-06
0.00449088
-2.15835e-05
0.00447939
-4.16451e-05
0.0044675
-6.13429e-05
0.00445526
-8.062e-05
0.00444272
-9.94283e-05
0.00442993
-0.000117728
0.00441693
-0.000135487
0.00440376
-0.000152681
0.00439047
-0.000169289
0.00437708
-0.000185298
0.00436361
-0.000200697
0.00435011
-0.000215481
0.00433659
-0.000229644
0.00432308
-0.000243188
0.00430958
-0.000256112
0.00429613
-0.000268421
0.00428273
-0.000280119
0.00426939
-0.000291213
0.00425614
-0.000301709
0.00424297
-0.000311616
0.0042299
-0.000320944
0.00421693
-0.000329703
0.00420407
-0.000337903
0.00419133
-0.000345558
0.00417872
-0.000352679
0.00416623
-0.00035928
0.00415388
-0.000365374
0.00414166
-0.000370977
0.00412958
-0.000376103
0.00411764
-0.000380769
0.00410584
-0.000384989
0.00409419
-0.000388782
0.00408269
-0.000392163
0.00407133
-0.000395151
0.00406013
-0.000397762
0.00404907
-0.000400015
0.00403817
-0.000401929
0.00402742
-0.00040352
-0.000404808
0.00469134
0.000187071
-0.00469599
0.00468616
0.000168006
0.00468042
0.000148578
0.00467411
0.000128978
0.00466718
0.000109155
0.00465963
8.91516e-05
0.00465145
6.90339e-05
0.00464266
4.88714e-05
0.00463328
2.874e-05
0.00462334
8.71718e-06
0.00461288
-1.1122e-05
0.00460194
-3.07075e-05
0.00459057
-4.99758e-05
0.00457883
-6.88706e-05
0.00456674
-8.73432e-05
0.00455436
-0.000105352
0.00454174
-0.000122864
0.00452891
-0.000139849
0.00451591
-0.000156287
0.00450277
-0.000172158
0.00448952
-0.000187451
0.0044762
-0.000202156
0.00446282
-0.000216266
0.00444941
-0.000229779
0.00443599
-0.000242694
0.00442258
-0.000255011
0.0044092
-0.000266734
0.00439585
-0.000277866
0.00438255
-0.000288414
0.00436932
-0.000298385
0.00435617
-0.000307787
0.00434309
-0.00031663
0.00433011
-0.000324922
0.00431723
-0.000332676
0.00430445
-0.000339902
0.00429179
-0.000346615
0.00427924
-0.000352826
0.00426681
-0.00035855
0.00425451
-0.000363802
0.00424234
-0.000368597
0.0042303
-0.00037295
0.0042184
-0.000376877
0.00420663
-0.000380396
0.004195
-0.000383524
0.00418352
-0.000386277
0.00417218
-0.000388673
0.00416098
-0.000390731
0.00414993
-0.000392468
-0.000393902
0.00480902
0.000191106
-0.00481305
0.00480444
0.000172579
0.00479931
0.000153713
0.0047936
0.000134689
0.00478728
0.000115468
0.00478035
9.60818e-05
0.0047728
7.65838e-05
0.00476464
5.70337e-05
0.00475588
3.74973e-05
0.00474656
1.80434e-05
0.00473669
-1.26013e-06
0.00472633
-2.03482e-05
0.00471552
-3.91605e-05
0.00470429
-5.76425e-05
0.00469269
-7.57457e-05
0.00468077
-9.34282e-05
0.00466856
-0.000110654
0.0046561
-0.000127393
0.00464344
-0.00014362
0.00463059
-0.000159316
0.00461761
-0.000174465
0.00460451
-0.000189054
0.00459132
-0.000203076
0.00457806
-0.000216524
0.00456476
-0.000229396
0.00455144
-0.000241689
0.00453811
-0.000253407
0.0045248
-0.00026455
0.00451151
-0.000275123
0.00449825
-0.000285133
0.00448505
-0.000294585
0.00447191
-0.000303488
0.00445884
-0.000311851
0.00444585
-0.000319683
0.00443294
-0.000326997
0.00442013
-0.000333803
0.00440742
-0.000340115
0.00439481
-0.000345945
0.00438232
-0.000351308
0.00436994
-0.000356219
0.00435768
-0.000360691
0.00434555
-0.000364743
0.00433354
-0.000368388
0.00432166
-0.000371645
0.00430992
-0.000374531
0.0042983
-0.000377062
0.00428683
-0.000379256
0.00427549
-0.000381131
-0.000382705
0.00492842
0.000194509
-0.00493183
0.00492447
0.000176529
0.00491996
0.00015823
0.00491486
0.000139784
0.00490917
0.000121162
0.00490286
0.000102386
0.00489595
8.35021e-05
0.00488842
6.4562e-05
0.00488029
4.56225e-05
0.00487159
2.67441e-05
0.00486234
7.98846e-06
0.00485258
-1.05848e-05
0.00484234
-2.89188e-05
0.00483166
-4.69615e-05
0.00482058
-6.46653e-05
0.00480914
-8.19882e-05
0.00479738
-9.88936e-05
0.00478533
-0.00011535
0.00477304
-0.000131331
0.00476054
-0.000146814
0.00474786
-0.000161782
0.00473502
-0.00017622
0.00472207
-0.000190117
0.00470901
-0.000203466
0.00469587
-0.000216262
0.00468268
-0.0002285
0.00466946
-0.000240181
0.00465622
-0.000251306
0.00464297
-0.000261877
0.00462973
-0.000271898
0.00461652
-0.000281375
0.00460335
-0.000290315
0.00459023
-0.000298726
0.00457716
-0.000306617
0.00456416
-0.000313997
0.00455124
-0.000320879
0.0045384
-0.000327273
0.00452564
-0.000333193
0.00451299
-0.000338651
0.00450043
-0.000343662
0.00448798
-0.000348241
0.00447564
-0.000352403
0.00446342
-0.000356164
0.00445131
-0.000359539
0.00443932
-0.000362546
0.00442747
-0.000365202
0.00441573
-0.000367524
0.00440413
-0.000369529
-0.000371235
0.00504958
0.000197262
-0.00505234
0.00504627
0.000179839
0.00504239
0.000162115
0.00503792
0.00014425
0.00503286
0.000126225
0.00502719
0.000108056
0.00502091
8.9783e-05
0.00501402
7.14507e-05
0.00500653
5.31088e-05
0.00499847
3.4811e-05
0.00498984
1.66126e-05
0.00498069
-1.4316e-06
0.00497104
-1.92688e-05
0.00496093
-3.68493e-05
0.00495039
-5.41274e-05
0.00493946
-7.10616e-05
0.00492819
-8.76152e-05
0.00491659
-0.000103756
0.00490472
-0.000119456
0.00489259
-0.000134691
0.00488025
-0.000149443
0.00486773
-0.000163694
0.00485504
-0.000177433
0.00484223
-0.000190649
0.0048293
-0.000203335
0.00481629
-0.000215486
0.00480321
-0.0002271
0.00479008
-0.000238177
0.00477692
-0.000248717
0.00476374
-0.000258722
0.00475056
-0.000268199
0.0047374
-0.000277151
0.00472426
-0.000285586
0.00471116
-0.000293513
0.0046981
-0.000300939
0.00468509
-0.000307876
0.00467216
-0.000314334
0.00465929
-0.000320325
0.0046465
-0.000325862
0.00463379
-0.000330958
0.00462118
-0.000335628
0.00460866
-0.000339887
0.00459625
-0.000343749
0.00458394
-0.00034723
0.00457174
-0.000350348
0.00455966
-0.000353117
0.00454769
-0.000355556
0.00453584
-0.000357682
-0.000359511
0.00517254
0.000199352
-0.00517463
0.00516988
0.000182495
0.00516664
0.000165356
0.00516281
0.000148077
0.00515839
0.000130648
0.00515336
0.000113085
0.00514772
9.54204e-05
0.00514148
7.76944e-05
0.00513464
5.99506e-05
0.00512721
4.2237e-05
0.00511922
2.46032e-05
0.00511069
7.09948e-06
0.00510165
-1.02253e-05
0.00509212
-2.73244e-05
0.00508215
-4.41539e-05
0.00507176
-6.06735e-05
0.00506099
-7.68468e-05
0.00504988
-9.26413e-05
0.00503845
-0.000108028
0.00502674
-0.000122984
0.00501478
-0.000137486
0.00500261
-0.000151517
0.00499024
-0.000165063
0.0049777
-0.000178113
0.00496502
-0.000190657
0.00495223
-0.00020269
0.00493933
-0.000214206
0.00492636
-0.000225204
0.00491333
-0.000235684
0.00490025
-0.000245647
0.00488715
-0.000255095
0.00487403
-0.000264034
0.00486091
-0.00027247
0.00484781
-0.000280408
0.00483473
-0.000287858
0.00482168
-0.000294829
0.00480868
-0.000301331
0.00479573
-0.000307374
0.00478284
-0.000312972
0.00477002
-0.000318137
0.00475727
-0.000322882
0.00474461
-0.000327222
0.00473203
-0.000331172
0.00471955
-0.000334746
0.00470716
-0.000337961
0.00469488
-0.000340833
0.0046827
-0.000343378
0.00467063
-0.000345614
-0.000347556
0.00529732
0.000200765
-0.00529873
0.00529533
0.000184486
0.00529274
0.00016794
0.00528957
0.000151253
0.00528579
0.000134424
0.00528141
0.000117466
0.00527642
0.000100409
0.00527083
8.32881e-05
0.00526463
6.61431e-05
0.00525786
4.90164e-05
0.00525051
3.19532e-05
0.00524261
1.49991e-05
0.00523418
-1.80045e-06
0.00522526
-1.84016e-05
0.00521587
-3.47628e-05
0.00520604
-5.0845e-05
0.0051958
-6.66127e-05
0.0051852
-8.20336e-05
0.00517425
-9.70788e-05
0.00516299
-0.000111723
0.00515145
-0.000125944
0.00513965
-0.000139724
0.00512763
-0.000153046
0.00511542
-0.000165897
0.00510303
-0.000178268
0.00509049
-0.00019015
0.00507782
-0.000201538
0.00506504
-0.000212428
0.00505218
-0.000222819
0.00503924
-0.00023271
0.00502625
-0.000242104
0.00501322
-0.000251004
0.00500017
-0.000259415
0.0049871
-0.000267342
0.00497403
-0.000274792
0.00496098
-0.000281775
0.00494795
-0.0002883
0.00493495
-0.000294377
0.004922
-0.000300016
0.00490909
-0.000305232
0.00489624
-0.000310035
0.00488346
-0.000314441
0.00487075
-0.000318463
0.00485812
-0.000322115
0.00484557
-0.000325414
0.00483312
-0.000328376
0.00482075
-0.000331015
0.00480849
-0.000333349
-0.000335394
0.00542398
0.000201493
-0.00542471
0.00542266
0.000185802
0.00542074
0.000169859
0.00541823
0.00015377
0.00541511
0.000137544
0.00541138
0.000121192
0.00540705
0.000104743
0.00540211
8.82276e-05
0.00539657
7.1682e-05
0.00539044
5.51447e-05
0.00538373
3.86568e-05
0.00537647
2.226e-05
0.00536868
5.99646e-06
0.00536037
-1.0093e-05
0.00535157
-2.59688e-05
0.00534232
-4.15939e-05
0.00533264
-5.69336e-05
0.00532257
-7.19562e-05
0.00531212
-8.6633e-05
0.00530134
-0.000100938
0.00529024
-0.00011485
0.00527886
-0.000128347
0.00526723
-0.000141414
0.00525537
-0.000154037
0.00524331
-0.000166203
0.00523106
-0.000177905
0.00521866
-0.000189134
0.00520612
-0.000199887
0.00519346
-0.00021016
0.0051807
-0.000219952
0.00516786
-0.000229264
0.00515496
-0.000238099
0.005142
-0.000246459
0.00512901
-0.00025435
0.005116
-0.000261778
0.00510297
-0.000268751
0.00508995
-0.000275277
0.00507694
-0.000281366
0.00506395
-0.000287028
0.00505099
-0.000292275
0.00503808
-0.000297119
0.00502521
-0.000301573
0.0050124
-0.000305651
0.00499965
-0.000309367
0.00498697
-0.000312736
0.00497437
-0.000315773
0.00496185
-0.000318494
0.00494941
-0.000320914
-0.00032305
0.00555258
0.000201531
-0.00555262
0.00555194
0.000186438
0.0055507
0.000171106
0.00554885
0.000155622
0.00554639
0.000140003
0.00554332
0.00012426
0.00553964
0.000108419
0.00553536
9.25094e-05
0.00553048
7.65642e-05
0.00552501
6.06186e-05
0.00551895
4.471e-05
0.00551234
2.8877e-05
0.00550517
1.31584e-05
0.00549749
-2.40755e-06
0.0054893
-1.77836e-05
0.00548064
-3.29342e-05
0.00547154
-4.78262e-05
0.00546201
-6.24286e-05
0.00545209
-7.6713e-05
0.0054418
-9.06538e-05
0.00543118
-0.000104228
0.00542025
-0.000117416
0.00540904
-0.0001302
0.00539756
-0.000142564
0.00538586
-0.000154497
0.00537394
-0.000165989
0.00536184
-0.000177031
0.00534957
-0.000187617
0.00533715
-0.000197744
0.00532461
-0.00020741
0.00531196
-0.000216613
0.00529922
-0.000225356
0.0052864
-0.00023364
0.00527352
-0.000241471
0.00526059
-0.000248852
0.00524764
-0.000255792
0.00523466
-0.000262297
0.00522167
-0.000268377
0.00520868
-0.000274042
0.00519571
-0.000279301
0.00518275
-0.000284167
0.00516983
-0.000288652
0.00515695
-0.00029277
0.00514412
-0.000296533
0.00513134
-0.000299956
0.00511862
-0.000303054
0.00510597
-0.000305842
0.00509339
-0.000308336
-0.000310551
0.00568319
0.000200877
-0.00568254
0.00568324
0.000186391
0.00568267
0.000171676
0.00568149
0.000156804
0.00567969
0.000141796
0.00567729
0.000126664
0.00567427
0.000111433
0.00567065
9.61311e-05
0.00566643
8.07878e-05
0.00566161
6.5436e-05
0.00565621
5.01103e-05
0.00565024
3.48464e-05
0.00564372
1.96804e-05
0.00563666
4.64802e-06
0.0056291
-1.02157e-05
0.00562104
-2.4877e-05
0.00561252
-3.93039e-05
0.00560355
-5.34665e-05
0.00559418
-6.73371e-05
0.00558442
-8.08903e-05
0.00557429
-9.41033e-05
0.00556383
-0.000106956
0.00555306
-0.000119429
0.005542
-0.000131509
0.00553069
-0.000143181
0.00551913
-0.000154435
0.00550736
-0.000165261
0.0054954
-0.000175653
0.00548326
-0.000185607
0.00547097
-0.000195118
0.00545854
-0.000204186
0.005446
-0.000212811
0.00543335
-0.000220994
0.00542062
-0.000228739
0.00540782
-0.000236051
0.00539496
-0.000242934
0.00538206
-0.000249396
0.00536913
-0.000255446
0.00535618
-0.000261091
0.00534322
-0.000266343
0.00533026
-0.000271212
0.00531732
-0.00027571
0.0053044
-0.00027985
0.00529151
-0.000283644
0.00527866
-0.000287105
0.00526586
-0.00029025
0.00525311
-0.000293091
0.00524042
-0.000295644
-0.000297925
0.00581589
0.000199531
-0.00581454
0.00581662
0.000185659
0.00581673
0.000171568
0.00581622
0.000157315
0.00581509
0.000142921
0.00581335
0.000128404
0.005811
0.000113785
0.00580804
9.90917e-05
0.00580448
8.43518e-05
0.00580032
6.95961e-05
0.00579557
5.48567e-05
0.00579025
4.01667e-05
0.00578437
2.55598e-05
0.00577795
1.10696e-05
0.005771
-3.27101e-06
0.00576356
-1.743e-05
0.00575563
-3.13767e-05
0.00574725
-4.50824e-05
0.00573843
-5.85201e-05
0.0057292
-7.16648e-05
0.00571959
-8.4494e-05
0.00570963
-9.69872e-05
0.00569932
-0.000109126
0.00568871
-0.000120895
0.00567781
-0.00013228
0.00566664
-0.00014327
0.00565524
-0.000153854
0.00564361
-0.000164026
0.00563178
-0.000173779
0.00561977
-0.00018311
0.0056076
-0.000192016
0.00559529
-0.000200498
0.00558285
-0.000208555
0.0055703
-0.00021619
0.00555766
-0.000223407
0.00554493
-0.000230211
0.00553215
-0.000236608
0.00551931
-0.000242605
0.00550643
-0.000248211
0.00549352
-0.000253436
0.00548059
-0.000258288
0.00546766
-0.00026278
0.00545474
-0.000266924
0.00544182
-0.000270731
0.00542893
-0.000274215
0.00541607
-0.00027739
0.00540325
-0.000280269
0.00539047
-0.000282868
-0.0002852
0.00595076
0.000197499