/*--------------------------------*- C++ -*----------------------------------*\
  =========                 |
  \\      /  F ield         | OpenFOAM: The Open Source CFD Toolbox
   \\    /   O peration     | Website:  https://openfoam.org
    \\  /    A nd           | Version:  7
     \\/     M anipulation  |
\*---------------------------------------------------------------------------*/
FoamFile
{
    version     2.0;
    format      ascii;
    class       volVectorField;
    location    "5";
    object      U;
}
// * * * * * * * * * * * * * * * * * * * * * * * * * * * * * * * * * * * * * //

dimensions      [0 1 -1 0 0 0 0];

internalField   nonuniform List<vector> 
2625
(
(0.270431 -0.00437894 8.84496e-22)
(0.310839 -0.00473831 2.5966e-21)
(1.24142 0.0346596 -1.14585e-19)
(1.23891 0.0380681 6.038e-20)
(1.23596 0.0412222 7.60959e-21)
(1.23268 0.0440937 -1.34837e-20)
(1.23838 0.0535006 -7.09317e-20)
(1.23038 0.0465649 8.4237e-21)
(1.23245 0.0591033 1.50806e-20)
(1.22777 0.0503226 -6.05496e-21)
(1.22561 0.0646794 -5.54135e-20)
(1.22435 0.0547616 -5.86225e-20)
(1.21782 0.0702333 5.85352e-20)
(1.21996 0.0594843 5.89926e-20)
(1.19742 0.0727492 -5.06655e-20)
(1.209 0.0757768 1.08951e-19)
(1.21456 0.0643889 -6.35405e-20)
(1.18545 0.0780995 6.66794e-21)
(1.19909 0.081305 -4.81377e-20)
(1.20814 0.0694399 9.78664e-20)
(1.17219 0.0834255 2.39711e-20)
(1.18803 0.0868005 -6.01407e-21)
(1.20064 0.074597 -9.76998e-20)
(1.15761 0.0886916 -6.37852e-20)
(1.17574 0.0922387 -8.42695e-20)
(1.192 0.0798201 4.39331e-20)
(1.14165 0.0938591 9.65539e-20)
(1.16216 0.0975892 1.00018e-20)
(1.18217 0.0850738 -2.68183e-20)
(1.12427 0.0988865 4.13672e-21)
(1.14722 0.102816 6.79386e-20)
(1.17106 0.0903237 1.34336e-21)
(1.06497 0.107114 -1.64639e-20)
(1.10545 0.10373 -8.76946e-20)
(1.13087 0.107876 3.48056e-20)
(1.15863 0.0955337 8.2034e-20)
(1.04166 0.111422 6.95345e-20)
(1.08518 0.108343 5.59815e-20)
(1.11309 0.112725 -2.70028e-20)
(1.14479 0.100664 -8.28139e-20)
(1.01702 0.115368 -3.51505e-20)
(1.06346 0.112677 1.5253e-21)
(1.09383 0.117311 -4.45328e-20)
(1.12951 0.105672 4.58635e-20)
(0.991113 0.118908 -2.35182e-21)
(1.0403 0.116685 3.69481e-21)
(1.07309 0.121582 -3.13962e-20)
(1.11272 0.11051 6.19117e-21)
(0.963995 0.122 8.22413e-20)
(1.01574 0.120315 -4.97138e-20)
(1.05088 0.125482 -7.23206e-21)
(1.0944 0.115125 -1.53523e-20)
(0.935751 0.124602 -1.5549e-20)
(0.989841 0.123518 4.07794e-20)
(1.02722 0.128954 5.49499e-20)
(1.07452 0.119461 1.71399e-21)
(0.906481 0.126676 -2.56357e-20)
(0.962664 0.126244 3.67544e-20)
(1.00216 0.131941 -2.96493e-20)
(1.05308 0.123457 2.51737e-20)
(0.816986 0.124614 -8.76269e-20)
(0.876298 0.128185 2.83994e-20)
(0.934304 0.128445 -4.15818e-20)
(0.97577 0.134387 -1.03186e-20)
(1.0301 0.127049 -1.00713e-20)
(0.785367 0.125056 1.18962e-20)
(0.845334 0.129096 -3.1846e-20)
(0.904873 0.130075 1.62285e-20)
(0.948141 0.136237 2.10978e-20)
(1.00562 0.130169 -5.76719e-21)
(0.753385 0.124896 3.10053e-20)
(0.813737 0.129381 2.9636e-20)
(0.874504 0.131089 -2.94475e-20)
(0.919392 0.137442 5.95204e-20)
(0.979702 0.132748 -3.19369e-20)
(0.721198 0.124118 -6.36004e-20)
(0.781667 0.129014 3.38737e-20)
(0.843348 0.131447 -2.93819e-20)
(0.889662 0.137953 -4.6839e-20)
(0.952452 0.134716 3.16174e-20)
(0.688975 0.122712 3.07793e-20)
(0.749301 0.127976 -8.42043e-21)
(0.811578 0.131113 4.86206e-20)
(0.859115 0.137729 2.73072e-20)
(0.923993 0.136002 -2.28092e-20)
(0.65689 0.12067 -1.81345e-21)
(0.716827 0.126252 -3.57173e-20)
(0.779386 0.130056 -1.35784e-20)
(0.827939 0.136734 -1.25799e-20)
(0.894485 0.136539 -4.31596e-21)
(0.625129 0.117991 3.17862e-20)
(0.684444 0.123833 8.48906e-21)
(0.746981 0.12825 -4.30948e-20)
(0.796343 0.134939 -3.21957e-21)
(0.864119 0.136261 2.45821e-20)
(0.593878 0.114678 -3.75992e-20)
(0.652362 0.120714 -2.45649e-20)
(0.714588 0.125676 6.21554e-20)
(0.764556 0.132322 -4.89267e-20)
(0.833118 0.135109 -1.01945e-22)
(0.563331 0.110738 4.25819e-21)
(0.620798 0.116898 2.32423e-20)
(0.682446 0.12232 -5.13582e-20)
(0.732825 0.12887 3.05334e-20)
(0.801734 0.133028 -1.90195e-20)
(0.533683 0.106185 3.63382e-21)
(0.589976 0.112392 -1.74768e-21)
(0.650808 0.118179 3.35392e-20)
(0.701412 0.124577 -1.05716e-20)
(0.770251 0.129974 2.77623e-20)
(0.50513 0.101034 -4.39925e-21)
(0.560121 0.107212 -1.27868e-20)
(0.619932 0.113255 -1.444e-20)
(0.670594 0.119448 2.41336e-20)
(0.738974 0.125914 -2.28334e-20)
(0.477865 0.0953077 6.32455e-20)
(0.531462 0.101376 1.21404e-20)
(0.590085 0.10756 1.45154e-20)
(0.640655 0.113494 -3.00496e-20)
(0.708233 0.120826 1.53922e-20)
(0.452079 0.0890331 -6.81088e-20)
(0.504225 0.0949111 -1.06083e-21)
(0.561534 0.101114 -1.2969e-20)
(0.611885 0.106737 3.18844e-21)
(0.67837 0.114702 -4.33613e-21)
(0.427957 0.0822405 4.7485e-20)
(0.478631 0.0878482 1.16455e-20)
(0.534546 0.0939451 -1.7535e-21)
(0.584574 0.0992072 3.00054e-20)
(0.649739 0.107551 4.25471e-21)
(0.357079 0.0699253 3.16189e-20)
(0.405677 0.0749652 -2.69382e-20)
(0.454894 0.0802248 -3.1052e-20)
(0.509381 0.0860905 4.7978e-21)
(0.559008 0.0909448 6.19387e-21)
(0.622697 0.0993964 -1.79428e-20)
(0.338448 0.062599 -2.45435e-20)
(0.385407 0.067246 -1.2074e-20)
(0.433218 0.0720836 2.70742e-20)
(0.48629 0.077596 -4.33614e-21)
(0.535467 0.0819979 -2.12957e-20)
(0.597595 0.0902816 1.31284e-20)
(0.321858 0.0549424 4.32052e-20)
(0.367302 0.0591258 3.06859e-20)
(0.413794 0.0634722 -2.19442e-20)
(0.465509 0.0685152 1.12789e-20)
(0.514215 0.0724233 -6.50652e-21)
(0.574773 0.0802664 -1.78705e-21)
(0.307422 0.046995 -3.00644e-20)
(0.351503 0.0506507 -3.81482e-21)
(0.396797 0.0544429 3.29947e-21)
(0.447256 0.0589093 7.95701e-21)
(0.495496 0.0622859 1.26143e-20)
(0.554549 0.0694282 -3.18197e-21)
(0.295236 0.0387982 2.11158e-21)
(0.338136 0.0418699 -3.66619e-21)
(0.382381 0.0450525 3.77848e-21)
(0.431726 0.0488465 -1.04812e-20)
(0.479533 0.051658 -3.63284e-21)
(0.537212 0.0578611 2.49176e-21)
(0.285385 0.030395 -6.40518e-21)
(0.327309 0.0328351 -5.53814e-21)
(0.370681 0.0353611 9.49961e-21)
(0.419089 0.038401 1.20801e-21)
(0.466518 0.0406189 -4.1943e-21)
(0.523018 0.0456747 -5.57086e-21)
(0.277935 0.0218298 4.40543e-21)
(0.319109 0.0236005 6.36954e-21)
(0.361806 0.0254324 -5.3938e-21)
(0.409485 0.0276522 -7.35279e-21)
(0.456611 0.0292533 2.39738e-21)
(0.512179 0.0329917 6.33401e-21)
(0.272939 0.0131482 4.53897e-21)
(0.313604 0.0142219 -5.75167e-21)
(0.355842 0.0153322 2.70793e-21)
(0.403021 0.0166837 8.07423e-21)
(0.449936 0.0176512 -2.39945e-22)
(0.504859 0.0199457 -1.81066e-22)
(0.270432 0.00439634 8.38189e-22)
(0.31084 0.00475632 2.56496e-21)
(0.352845 0.00512845 -1.35158e-21)
(0.39977 0.00558211 -2.60878e-21)
(0.446577 0.00590558 -4.26144e-22)
(0.50117 0.0066787 -8.24009e-22)
(1.2359 0.0344377 -1.66224e-20)
(1.23602 0.0350674 2.06016e-20)
(1.2374 0.0323917 -2.73799e-20)
(1.23612 0.0356882 -1.63655e-20)
(1.23749 0.0329427 -5.10539e-20)
(1.2362 0.036299 -1.63484e-20)
(1.23891 0.0302322 -4.1459e-20)
(1.23755 0.0334827 2.4814e-20)
(1.23625 0.0368996 -2.3396e-21)
(1.23902 0.0307562 1.10436e-20)
(1.23758 0.0340113 2.03444e-20)
(1.23627 0.0374897 2.07996e-20)
(1.2391 0.0312798 -1.22186e-20)
(1.23758 0.0345283 -4.96485e-20)
(1.23625 0.0380693 2.53432e-20)
(1.24042 0.0286161 -2.97474e-20)
(1.23916 0.0318026 -7.78681e-21)
(1.23754 0.0350338 8.52879e-20)
(1.23619 0.0386389 -1.8508e-20)
(1.24053 0.0291195 -6.56287e-21)
(1.23919 0.0323267 -2.09604e-20)
(1.23748 0.0355325 -2.63384e-20)
(1.23607 0.0392037 5.33736e-21)
(1.24185 0.0264306 -2.37128e-20)
(1.24062 0.0296339 2.13547e-20)
(1.23919 0.0328604 4.85827e-20)
(1.23737 0.0360448 1.02003e-20)
(1.23587 0.0397762 -4.12517e-21)
(1.24199 0.0269144 2.76976e-20)
(1.24069 0.030154 4.4815e-20)
(1.23916 0.0334051 -2.68983e-20)
(1.23721 0.03659 -7.46833e-20)
(1.23555 0.040344 3.52698e-20)
(1.10053 0.0675488 0)
(1.09562 0.066518 0)
(1.09077 0.065343 0)
(1.086 0.0640276 0)
(1.0813 0.0625769 0)
(1.0767 0.0609973 0)
(1.0722 0.0592965 0)
(1.06782 0.0574833 0)
(1.06356 0.055568 0)
(1.05944 0.0535617 0)
(1.05546 0.0514769 0)
(1.05163 0.0493265 0)
(1.04795 0.0471244 0)
(1.04444 0.0448847 0)
(1.04109 0.0426217 0)
(1.03791 0.0403498 0)
(1.03489 0.0380829 0)
(1.23415 0.0361365 0)
(1.23168 0.038649 0)
(1.22902 0.0411448 0)
(1.22608 0.0435431 0)
(1.22298 0.0458254 0)
(1.21975 0.0479953 0)
(1.21642 0.0500646 0)
(1.21297 0.0520437 0)
(1.20943 0.0539392 0)
(1.20578 0.0557547 0)
(1.20203 0.057491 0)
(1.19818 0.0591472 0)
(1.19422 0.0607209 0)
(1.19015 0.0622091 0)
(1.18599 0.0636082 0)
(1.18172 0.0649141 0)
(1.17737 0.0661225 0)
(1.17292 0.067229 0)
(1.16838 0.0682289 0)
(1.16376 0.0691177 0)
(1.15907 0.0698905 0)
(1.1543 0.0705429 0)
(1.14948 0.0710701 0)
(1.1446 0.0714679 0)
(1.13967 0.0717318 0)
(1.13471 0.071858 0)
(1.12972 0.0718428 0)
(1.12471 0.071683 0)
(1.11969 0.0713759 0)
(1.11467 0.0709196 0)
(1.10966 0.0703126 0)
(1.10468 0.0695546 0)
(1.09974 0.068646 0)
(1.09484 0.0675883 0)
(1.09001 0.0663844 0)
(1.08524 0.0650382 0)
(1.08056 0.0635548 0)
(1.07597 0.061941 0)
(1.07149 0.0602044 0)
(1.06713 0.0583542 0)
(1.06289 0.0564008 0)
(1.05879 0.0543558 0)
(1.05483 0.0522315 0)
(1.05102 0.0500414 0)
(1.04736 0.0477994 0)
(1.04387 0.0455199 0)
(1.04055 0.0432176 0)
(1.03739 0.040907 0)
(1.03441 0.0386021 0)
(1.23425 0.0368927 0)
(1.23169 0.0395237 0)
(1.22891 0.0421035 0)
(1.22588 0.0445541 0)
(1.2227 0.0468682 0)
(1.2194 0.0490598 0)
(1.21601 0.0511466 0)
(1.21253 0.0531417 0)
(1.20895 0.0550529 0)
(1.20527 0.0568839 0)
(1.20148 0.0586354 0)
(1.1976 0.0603061 0)
(1.19361 0.0618937 0)
(1.18952 0.0633948 0)
(1.18533 0.0648055 0)
(1.18105 0.0661216 0)
(1.17667 0.0673387 0)
(1.1722 0.0684522 0)
(1.16764 0.0694575 0)
(1.16301 0.0703496 0)
(1.1583 0.071124 0)
(1.15353 0.0717758 0)
(1.14869 0.0723005 0)
(1.1438 0.0726936 0)
(1.13887 0.0729506 0)
(1.1339 0.0730677 0)
(1.1289 0.0730412 0)
(1.12389 0.0728678 0)
(1.11887 0.0725448 0)
(1.11385 0.0720702 0)
(1.10885 0.0714428 0)
(1.10387 0.0706621 0)
(1.09894 0.0697286 0)
(1.09405 0.068644 0)
(1.08923 0.0674112 0)
(1.08447 0.0660342 0)
(1.07981 0.0645183 0)
(1.07523 0.0628702 0)
(1.07077 0.0610981 0)
(1.06642 0.0592112 0)
(1.06221 0.05722 0)
(1.05812 0.0551364 0)
(1.05419 0.052973 0)
(1.0504 0.0507435 0)
(1.04677 0.048462 0)
(1.04331 0.0461432 0)
(1.04001 0.043802 0)
(1.03688 0.0414531 0)
(1.03392 0.0391108 0)
(1.23432 0.0376659 0)
(1.23164 0.0404263 0)
(1.22874 0.0430878 0)
(1.2256 0.0455833 0)
(1.22234 0.047922 0)
(1.21899 0.0501297 0)
(1.21555 0.0522302 0)
(1.21203 0.0542388 0)
(1.20841 0.0561639 0)
(1.2047 0.0580092 0)
(1.20089 0.0597749 0)
(1.19698 0.0614595 0)
(1.19297 0.0630602 0)
(1.18885 0.0645734 0)
(1.18464 0.0659951 0)
(1.18033 0.0673209 0)
(1.17593 0.0685461 0)
(1.17145 0.0696661 0)
(1.16688 0.070676 0)
(1.16223 0.0715711 0)
(1.1575 0.0723465 0)
(1.15272 0.0729973 0)
(1.14787 0.073519 0)
(1.14297 0.0739069 0)
(1.13803 0.0741567 0)
(1.13306 0.0742643 0)
(1.12806 0.0742261 0)
(1.12305 0.0740388 0)
(1.11803 0.0736996 0)
(1.11302 0.0732066 0)
(1.10802 0.0725586 0)
(1.10305 0.0717551 0)
(1.09812 0.0707967 0)
(1.09325 0.0696852 0)
(1.08843 0.0684234 0)
(1.08369 0.0670156 0)
(1.07904 0.0654673 0)
(1.07449 0.0637852 0)
(1.07004 0.0619777 0)
(1.06572 0.0600542 0)
(1.06152 0.0580256 0)
(1.05746 0.0559037 0)
(1.05354 0.0537015 0)
(1.04978 0.0514329 0)
(1.04618 0.0491124 0)
(1.04274 0.0467547 0)
(1.03946 0.044375 0)
(1.03636 0.0419883 0)
(1.03342 0.0396091 0)
(1.23436 0.0384619 0)
(1.23153 0.0413621 0)
(1.22849 0.0440994 0)
(1.22525 0.04663 0)
(1.22191 0.0489848 0)
(1.21851 0.051203 0)
(1.21503 0.0533136 0)
(1.21147 0.0553335 0)
(1.20783 0.0572712 0)
(1.20409 0.0591297 0)
(1.20025 0.0609088 0)
(1.19632 0.0626066 0)
(1.19228 0.0642198 0)
(1.18814 0.0657446 0)
(1.18391 0.0671767 0)
(1.17958 0.0685115 0)
(1.17517 0.0697443 0)
(1.17066 0.0708702 0)
(1.16608 0.0718844 0)
(1.16141 0.0727818 0)
(1.15668 0.0735577 0)
(1.15188 0.0742071 0)
(1.14703 0.0747253 0)
(1.14212 0.0751076 0)
(1.13718 0.0753498 0)
(1.1322 0.0754476 0)
(1.1272 0.0753974 0)
(1.12219 0.0751959 0)
(1.11717 0.0748403 0)
(1.11216 0.0743288 0)
(1.10717 0.0736599 0)
(1.10221 0.0728335 0)
(1.09729 0.0718501 0)
(1.09243 0.0707116 0)
(1.08763 0.069421 0)
(1.0829 0.0679825 0)
(1.07827 0.0664018 0)
(1.07373 0.0646859 0)
(1.06931 0.0628432 0)
(1.065 0.0608834 0)
(1.06082 0.0588175 0)
(1.05679 0.0566577 0)
(1.0529 0.0544171 0)
(1.04916 0.0521098 0)
(1.04558 0.0497506 0)
(1.04217 0.0473544 0)
(1.03892 0.0449368 0)
(1.03584 0.0425128 0)
(1.03293 0.0400971 0)
(1.23434 0.0392885 0)
(1.23135 0.0423365 0)
(1.22816 0.0451392 0)
(1.22481 0.0476923 0)
(1.22141 0.0500541 0)
(1.21796 0.0522773 0)
(1.21445 0.0543949 0)
(1.21086 0.0564244 0)
(1.20719 0.0583735 0)
(1.20343 0.0602445 0)
(1.19957 0.0620365 0)
(1.19561 0.0637469 0)
(1.19155 0.0653721 0)
(1.1874 0.0669079 0)
(1.18314 0.0683499 0)
(1.1788 0.0696932 0)
(1.17436 0.0709329 0)
(1.16984 0.0720643 0)
(1.16524 0.0730821 0)
(1.16057 0.0739815 0)
(1.15583 0.0747574 0)
(1.15102 0.0754049 0)
(1.14616 0.0759192 0)
(1.14125 0.0762956 0)
(1.1363 0.0765298 0)
(1.13132 0.0766175 0)
(1.12632 0.076555 0)
(1.12131 0.076339 0)
(1.1163 0.0759668 0)
(1.11129 0.0754365 0)
(1.10631 0.0747468 0)
(1.10136 0.0738973 0)
(1.09645 0.0728889 0)
(1.0916 0.0717234 0)
(1.08681 0.0704039 0)
(1.08211 0.0689348 0)
(1.07749 0.0673219 0)
(1.07297 0.0655723 0)
(1.06856 0.0636946 0)
(1.06428 0.0616988 0)
(1.06012 0.0595959 0)
(1.05611 0.0573985 0)
(1.05224 0.0551198 0)
(1.04853 0.0527743 0)
(1.04498 0.0503767 0)
(1.04159 0.0479426 0)
(1.03837 0.0454873 0)
(1.03532 0.0430265 0)
(1.03243 0.0405749 0)
(1.23427 0.040155 0)
(1.23107 0.043355 0)
(1.22773 0.0462065 0)
(1.22429 0.0487671 0)
(1.22084 0.0511267 0)
(1.21735 0.0533501 0)
(1.21381 0.0554723 0)
(1.2102 0.0575101 0)
(1.20651 0.0594699 0)
(1.20272 0.0613528 0)
(1.19884 0.0631572 0)
(1.19486 0.0648797 0)
(1.19078 0.0665164 0)
(1.18661 0.0680628 0)
(1.18234 0.0695141 0)
(1.17798 0.0708654 0)
(1.17353 0.0721117 0)
(1.16899 0.0732479 0)
(1.16438 0.074269 0)
(1.1597 0.0751698 0)
(1.15494 0.0759453 0)
(1.15013 0.0765905 0)
(1.14526 0.0771005 0)
(1.14035 0.0774706 0)
(1.1354 0.0776964 0)
(1.13042 0.0777737 0)
(1.12542 0.0776986 0)
(1.12041 0.077468 0)
(1.1154 0.077079 0)
(1.11041 0.0765298 0)
(1.10543 0.075819 0)
(1.10049 0.0749465 0)
(1.0956 0.073913 0)
(1.09076 0.0727205 0)
(1.08599 0.0713722 0)
(1.0813 0.0698726 0)
(1.0767 0.0682276 0)
(1.0722 0.0664445 0)
(1.06781 0.0645321 0)
(1.06355 0.0625004 0)
(1.05942 0.0603609 0)
(1.05543 0.0581262 0)
(1.05159 0.0558098 0)
(1.0479 0.0534264 0)
(1.04437 0.050991 0)
(1.04101 0.0485192 0)
(1.03782 0.0460269 0)
(1.03479 0.0435297 0)
(1.03194 0.0410426 0)
(1.23413 0.0410734 0)
(1.23068 0.0444219 0)
(1.22719 0.0472988 0)
(1.22368 0.04985 0)
(1.22018 0.0521987 0)
(1.21667 0.0544184 0)
(1.21311 0.0565436 0)
(1.20948 0.058589 0)
(1.20577 0.0605592 0)
(1.20197 0.0624537 0)
(1.19807 0.0642701 0)
(1.19407 0.0660044 0)
(1.18998 0.0676522 0)
(1.18579 0.0692087 0)
(1.1815 0.070669 0)
(1.17712 0.0720278 0)
(1.17266 0.0732802 0)
(1.16811 0.0744208 0)
(1.16349 0.0754446 0)
(1.15879 0.0763464 0)
(1.15403 0.0771211 0)
(1.14921 0.0777635 0)
(1.14434 0.0782688 0)
(1.13943 0.0786323 0)
(1.13447 0.0788494 0)
(1.1295 0.078916 0)
(1.1245 0.0788281 0)
(1.1195 0.0785826 0)
(1.1145 0.0781766 0)
(1.10951 0.0776083 0)
(1.10454 0.0768764 0)
(1.09961 0.0759808 0)
(1.09473 0.0749222 0)
(1.08991 0.0737028 0)
(1.08515 0.0723258 0)
(1.08048 0.0707958 0)
(1.0759 0.0691188 0)
(1.07142 0.0673025 0)
(1.06706 0.0653555 0)
(1.06282 0.0632884 0)
(1.05871 0.0611125 0)
(1.05475 0.0588408 0)
(1.05093 0.0564871 0)
(1.04727 0.0540661 0)
(1.04377 0.0515933 0)
(1.04043 0.0490844 0)
(1.03727 0.0465555 0)
(1.03427 0.0440223 0)
(1.03144 0.0415003 0)
(1.23388 0.0420584 0)
(1.23016 0.0455406 0)
(1.22654 0.0484116 0)
(1.22297 0.0509359 0)
(1.21946 0.0532666 0)
(1.21593 0.0554801 0)
(1.21236 0.0576076 0)
(1.20872 0.0596606 0)
(1.20499 0.061641 0)
(1.20117 0.0635471 0)
(1.19726 0.0653753 0)
(1.19324 0.0671211 0)
(1.18913 0.0687796 0)
(1.18492 0.0703458 0)
(1.18062 0.0718145 0)
(1.17623 0.0731804 0)
(1.17176 0.0744383 0)
(1.1672 0.0755829 0)
(1.16257 0.076609 0)
(1.15786 0.0775112 0)
(1.1531 0.0782846 0)
(1.14827 0.0789238 0)
(1.1434 0.0794241 0)
(1.13848 0.0797805 0)
(1.13353 0.0799886 0)
(1.12855 0.0800441 0)
(1.12356 0.0799432 0)
(1.11857 0.0796825 0)
(1.11357 0.0792594 0)
(1.10859 0.0786719 0)
(1.10364 0.0779188 0)
(1.09872 0.077 0)
(1.09385 0.0759163 0)
(1.08905 0.0746699 0)
(1.08431 0.0732642 0)
(1.07965 0.071704 0)
(1.07509 0.0699953 0)
(1.07064 0.0681458 0)
(1.0663 0.0661646 0)
(1.06208 0.0640622 0)
(1.058 0.0618503 0)
(1.05406 0.059542 0)
(1.05027 0.0571513 0)
(1.04663 0.0546933 0)
(1.04316 0.0521835 0)
(1.03985 0.0496379 0)
(1.03671 0.0470728 0)
(1.03374 0.0445042 0)
(1.03094 0.0419477 0)
(1.2335 0.0431291 0)
(1.22949 0.0467116 0)
(1.22577 0.0495384 0)
(1.22218 0.0520193 0)
(1.21866 0.0543272 0)
(1.21514 0.0565339 0)
(1.21156 0.0586642 0)
(1.20791 0.0607251 0)
(1.20417 0.062716 0)
(1.20033 0.0646337 0)
(1.1964 0.0664735 0)
(1.19237 0.0682305 0)
(1.18825 0.0698994 0)
(1.18403 0.0714749 0)
(1.17971 0.0729515 0)
(1.17531 0.074324 0)
(1.17082 0.075587 0)
(1.16626 0.076735 0)
(1.16162 0.0777628 0)
(1.15691 0.0786652 0)
(1.15213 0.0794367 0)
(1.14731 0.0800724 0)
(1.14243 0.0805671 0)
(1.13751 0.0809162 0)
(1.13257 0.0811149 0)
(1.12759 0.081159 0)
(1.12261 0.0810447 0)
(1.11762 0.0807687 0)
(1.11263 0.0803282 0)
(1.10766 0.0797213 0)
(1.10272 0.0789468 0)
(1.09782 0.0780047 0)
(1.09297 0.0768959 0)
(1.08817 0.0756226 0)
(1.08346 0.0741883 0)
(1.07882 0.0725979 0)
(1.07428 0.0708576 0)
(1.06985 0.0689752 0)
(1.06553 0.0669599 0)
(1.06134 0.0648225 0)
(1.05728 0.0625749 0)
(1.05337 0.0602303 0)
(1.0496 0.0578031 0)
(1.04599 0.0553083 0)
(1.04255 0.0527619 0)
(1.03927 0.0501801 0)
(1.03616 0.0475793 0)
(1.03322 0.0449757 0)
(1.03044 0.0423852 0)
(1.23294 0.0443035 0)
(1.22865 0.0479223 0)
(1.22488 0.0506617 0)
(1.22131 0.0530877 0)
(1.2178 0.0553724 0)
(1.21428 0.0575739 0)
(1.2107 0.0597086 0)
(1.20705 0.0617786 0)
(1.2033 0.0637809 0)
(1.19945 0.0657106 0)
(1.19551 0.0675624 0)
(1.19147 0.0693306 0)
(1.18733 0.0710099 0)
(1.18309 0.0725945 0)
(1.17877 0.074079 0)
(1.17436 0.0754579 0)
(1.16986 0.0767258 0)
(1.16529 0.0778771 0)
(1.16064 0.0789065 0)
(1.15592 0.0798087 0)
(1.15115 0.0805783 0)
(1.14632 0.0812102 0)
(1.14144 0.0816994 0)
(1.13653 0.0820409 0)
(1.13158 0.0822302 0)
(1.12661 0.0822629 0)
(1.12163 0.0821353 0)
(1.11665 0.0818439 0)
(1.11168 0.0813861 0)
(1.10672 0.0807599 0)
(1.10179 0.0799642 0)
(1.09691 0.0789989 0)
(1.09207 0.0778651 0)
(1.08729 0.0765651 0)
(1.08259 0.0751024 0)
(1.07798 0.073482 0)
(1.07346 0.0717102 0)
(1.06905 0.0697952 0)
(1.06476 0.0677462 0)
(1.06059 0.065574 0)
(1.05656 0.063291 0)
(1.05267 0.0609104 0)
(1.04893 0.0584469 0)
(1.04535 0.0559158 0)
(1.04194 0.0533331 0)
(1.03869 0.0507154 0)
(1.0356 0.0480792 0)
(1.03269 0.0454409 0)
(1.02994 0.0428167 0)
(1.23209 0.0455785 0)
(1.22762 0.0491266 0)
(1.22388 0.0517408 0)
(1.22036 0.0541101 0)
(1.21689 0.0563767 0)
(1.21338 0.0585775 0)
(1.20981 0.0607197 0)
(1.20614 0.0628012 0)
(1.20239 0.0648165 0)
(1.19853 0.0667596 0)
(1.19458 0.0686244 0)
(1.19052 0.0704049 0)
(1.18637 0.0720953 0)
(1.18213 0.0736898 0)
(1.17779 0.0751829 0)
(1.17337 0.0765689 0)
(1.16887 0.0778422 0)
(1.16429 0.0789975 0)
(1.15963 0.0800292 0)
(1.15491 0.0809319 0)
(1.15014 0.0817003 0)
(1.14531 0.0823292 0)
(1.14043 0.0828135 0)
(1.13552 0.0831483 0)
(1.13058 0.0833288 0)
(1.12562 0.083351 0)
(1.12064 0.0832107 0)
(1.11567 0.0829048 0)
(1.11071 0.0824304 0)
(1.10577 0.0817857 0)
(1.10085 0.0809696 0)
(1.09598 0.079982 0)
(1.09116 0.078824 0)
(1.08641 0.077498 0)
(1.08173 0.0760076 0)
(1.07713 0.0743579 0)
(1.07264 0.0725555 0)
(1.06825 0.0706084 0)
(1.06398 0.0685262 0)
(1.05984 0.06632 0)
(1.05583 0.064002 0)
(1.05197 0.061586 0)
(1.04826 0.0590866 0)
(1.04471 0.0565195 0)
(1.04132 0.0539009 0)
(1.0381 0.0512476 0)
(1.03505 0.0485763 0)
(1.03216 0.0459036 0)
(1.02945 0.0432459 0)
(1.23084 0.0469407 0)
(1.2264 0.0502933 0)
(1.22278 0.0527675 0)
(1.21935 0.0550846 0)
(1.21592 0.0573411 0)
(1.21243 0.0595451 0)
(1.20887 0.0616967 0)
(1.2052 0.0637904 0)
(1.20144 0.0658187 0)
(1.19758 0.0677746 0)
(1.19361 0.0696516 0)
(1.18955 0.0714435 0)
(1.18539 0.073144 0)
(1.18113 0.0747475 0)
(1.17679 0.0762481 0)
(1.17236 0.0776401 0)
(1.16785 0.078918 0)
(1.16326 0.0800762 0)
(1.1586 0.0811092 0)
(1.15388 0.0820115 0)
(1.1491 0.0827778 0)
(1.14427 0.0834029 0)
(1.1394 0.0838816 0)
(1.13449 0.0842089 0)
(1.12956 0.0843802 0)
(1.1246 0.0843912 0)
(1.11964 0.084238 0)
(1.11468 0.0839171 0)
(1.10973 0.083426 0)
(1.1048 0.0827627 0)
(1.0999 0.0819261 0)
(1.09505 0.0809162 0)
(1.09025 0.0797342 0)
(1.08551 0.0783825 0)
(1.08085 0.0768649 0)
(1.07628 0.0751865 0)
(1.07181 0.0733541 0)
(1.06744 0.0713758 0)
(1.0632 0.0692613 0)
(1.05909 0.067022 0)
(1.05511 0.0646703 0)
(1.05127 0.06222 0)
(1.04759 0.0596862 0)
(1.04407 0.0570845 0)
(1.04071 0.0544316 0)
(1.03752 0.0517442 0)
(1.03449 0.0490394 0)
(1.03163 0.0463341 0)
(1.02895 0.0436446 0)
(1.22653 0.0507418 6.1416e-21)
(1.22321 0.0533519 -2.37895e-21)
(1.22007 0.0555195 2.64216e-20)
(1.2169 0.0576937 -6.98306e-21)
(1.21357 0.05992 -6.81861e-21)
(1.21013 0.0621196 -1.94379e-20)
(1.20658 0.0642737 2.60693e-20)
(1.20292 0.0663737 8.8556e-21)
(1.19914 0.0684085 -6.41489e-21)
(1.19526 0.0703694 -1.03214e-20)
(1.19128 0.072249 8.13541e-21)
(1.1872 0.0740407 -9.56195e-21)
(1.18302 0.0757382 1.30447e-20)
(1.17874 0.0773353 -1.05303e-20)
(1.17438 0.0788262 2.2458e-21)
(1.16994 0.0802052 -8.01428e-21)
(1.16542 0.0814665 3.56102e-21)
(1.16083 0.0826047 6.74851e-21)
(1.15617 0.0836141 -3.69735e-21)
(1.15145 0.0844892 -3.48035e-21)
(1.14667 0.0852248 2.75299e-21)
(1.14185 0.0858156 -1.20887e-21)
(1.13699 0.0862563 3.78898e-21)
(1.1321 0.0865422 -6.55108e-21)
(1.12718 0.0866685 -8.46839e-22)
(1.12225 0.086631 -2.65088e-21)
(1.11731 0.0864259 8.66079e-21)
(1.11238 0.0860499 -1.00064e-20)
(1.10746 0.0855003 9.28434e-21)
(1.10257 0.0847755 -7.02408e-21)
(1.09771 0.0838745 5.13258e-22)
(1.0929 0.0827976 4.85093e-21)
(1.08815 0.0815462 1.46144e-21)
(1.08346 0.0801229 -4.24688e-21)
(1.07886 0.0785319 3.8885e-21)
(1.07434 0.0767785 -3.28071e-22)
(1.06992 0.07487 -2.45856e-21)
(1.06562 0.0728148 -2.51102e-22)
(1.06144 0.0706232 1.27039e-21)
(1.05738 0.0683066 -1.46372e-21)
(1.05347 0.0658781 -1.31734e-22)
(1.0497 0.0633519 5.95528e-22)
(1.04609 0.0607434 1.7598e-22)
(1.04263 0.0580687 -1.50496e-23)
(1.03934 0.0553446 -5.14526e-22)
(1.03621 0.0525884 3.86577e-22)
(1.03325 0.0498174 2.93198e-22)
(1.03046 0.0470487 -5.78614e-22)
(1.02784 0.0442988 -5.2787e-23)
(1.22184 0.0549832 -1.64554e-20)
(1.21867 0.0578354 -1.42239e-20)
(1.21559 0.0603311 1.36358e-20)
(1.21251 0.0626045 1.29936e-20)
(1.20923 0.0648622 4.9951e-21)
(1.2058 0.0670684 -1.66362e-20)
(1.20225 0.069201 -1.98508e-21)
(1.19857 0.0712609 -1.12115e-20)
(1.19478 0.0732438 -6.9997e-22)
(1.19088 0.0751432 1.17761e-20)
(1.18688 0.0769533 -1.01065e-21)
(1.18277 0.0786685 -1.81768e-20)
(1.17858 0.0802831 2.73261e-20)
(1.17429 0.0817917 -8.00598e-21)
(1.16993 0.0831885 2.77595e-21)
(1.16548 0.0844682 8.68093e-21)
(1.16096 0.0856253 -9.86535e-21)
(1.15638 0.0866544 -4.36133e-21)
(1.15173 0.0875501 7.27267e-21)
(1.14703 0.0883071 2.00799e-21)
(1.14228 0.0889203 -2.26683e-22)
(1.13749 0.0893845 -1.48326e-20)
(1.13267 0.0896947 1.63825e-20)
(1.12782 0.0898463 -1.30284e-20)
(1.12296 0.0898349 6.30578e-22)
(1.11808 0.0896565 3.02042e-21)
(1.11321 0.0893075 -3.89931e-21)
(1.10835 0.0887852 6.29376e-21)
(1.1035 0.0880874 2.27213e-21)
(1.09869 0.0872129 -7.12626e-21)
(1.09392 0.0861614 -2.11501e-21)
(1.08919 0.0849336 5.68854e-21)
(1.08453 0.0835319 -4.53561e-21)
(1.07994 0.0819594 9.28513e-22)
(1.07544 0.0802212 -9.75502e-22)
(1.07103 0.0783234 4.43633e-21)
(1.06672 0.076274 -2.68242e-21)
(1.06253 0.0740823 1.30529e-21)
(1.05845 0.0717591 9.96436e-23)
(1.05452 0.0693168 -3.84955e-22)
(1.05072 0.0667689 3.44094e-22)
(1.04707 0.0641304 -8.56145e-22)
(1.04357 0.0614168 1.01096e-21)
(1.04023 0.0586448 -1.1055e-22)
(1.03706 0.0558315 -7.97915e-23)
(1.03405 0.0529942 -1.05872e-21)
(1.03121 0.0501502 1.03863e-21)
(1.02853 0.0473165 -5.15659e-23)
(1.02602 0.0445095 -8.34187e-23)
(1.21748 0.0595074 4.29492e-20)
(1.2142 0.06219 -3.01381e-20)
(1.21098 0.0647234 8.36953e-21)
(1.2078 0.0670372 8.42928e-21)
(1.20447 0.0693002 -2.22796e-20)
(1.20099 0.0715034 1.90168e-20)
(1.1974 0.0736229 -1.89777e-20)
(1.19369 0.0756579 8.67659e-21)
(1.18988 0.0776065 3.6831e-21)
(1.18595 0.0794636 2.4575e-20)
(1.18193 0.0812239 -3.44289e-20)
(1.17782 0.0828825 1.00491e-20)
(1.17362 0.0844343 6.99337e-21)
(1.16933 0.085874 -5.41694e-21)
(1.16497 0.0871965 -2.21221e-21)
(1.16053 0.0883965 -2.81445e-21)
(1.15603 0.0894687 1.85751e-20)
(1.15147 0.0904081 -1.35753e-20)
(1.14685 0.0912093 1.42373e-20)
(1.14219 0.0918672 -3.06238e-21)
(1.13748 0.0923768 -1.27725e-20)
(1.13274 0.092733 4.15271e-21)
(1.12798 0.0929312 1.10381e-21)
(1.12319 0.0929667 2.22968e-21)
(1.11839 0.0928355 -3.11761e-21)
(1.11359 0.0925337 -1.21375e-21)
(1.1088 0.0920583 3.23488e-21)
(1.10402 0.0914067 -7.50008e-22)
(1.09926 0.0905772 5.76823e-22)
(1.09454 0.0895691 2.91916e-21)
(1.08987 0.0883825 -3.39659e-22)
(1.08525 0.0870189 -2.52108e-21)
(1.0807 0.085481 -1.29934e-21)
(1.07622 0.083773 5.11727e-21)
(1.07183 0.0819002 -1.78943e-21)
(1.06754 0.0798699 -1.80172e-21)
(1.06335 0.0776905 1.89017e-21)
(1.05928 0.075372 -8.05994e-23)
(1.05534 0.0729262 -4.37023e-22)
(1.05152 0.0703659 5.0556e-22)
(1.04785 0.0677054 -3.69573e-22)
(1.04433 0.0649599 3.63004e-22)
(1.04096 0.0621458 -6.39061e-22)
(1.03775 0.0592799 1.53896e-22)
(1.03471 0.0563796 2.87928e-22)
(1.03182 0.0534624 -9.32932e-22)
(1.0291 0.0505457 7.86773e-22)
(1.02655 0.0476465 -4.15116e-23)
(1.02416 0.044781 -5.54823e-22)
(1.2127 0.0643069 1.9379e-20)
(1.20929 0.0668631 1.31546e-20)
(1.20592 0.0693338 -1.04716e-20)
(1.20261 0.0716193 -1.43544e-20)
(1.19918 0.0738488 -2.84909e-22)
(1.19563 0.0760183 2.4294e-20)
(1.19199 0.078103 8.92519e-21)
(1.18824 0.0800982 6.94705e-22)
(1.18439 0.0820012 -6.16479e-22)
(1.18045 0.0838067 2.2148e-22)
(1.17641 0.0855098 -3.18756e-21)
(1.17229 0.0871055 3.19039e-22)
(1.1681 0.088589 -2.02429e-20)
(1.16382 0.0899553 -2.22986e-21)
(1.15948 0.0911993 -5.34234e-21)
(1.15507 0.0923162 2.15959e-20)
(1.1506 0.0933009 -3.90741e-21)
(1.14608 0.0941482 9.58288e-21)
(1.14151 0.0948531 -1.24878e-20)
(1.1369 0.0954107 -3.19257e-21)
(1.13225 0.0958159 -4.65754e-21)
(1.12758 0.0960639 -2.67318e-21)
(1.12289 0.0961501 1.23494e-20)
(1.11818 0.0960701 -4.87771e-21)
(1.11347 0.09582 -4.11167e-21)
(1.10876 0.0953963 6.35187e-21)
(1.10406 0.0947962 1.04256e-21)
(1.09938 0.0940173 -1.76828e-21)
(1.09473 0.0930584 3.73778e-21)
(1.09013 0.0919192 2.97032e-22)
(1.08557 0.0906004 -4.42828e-21)
(1.08107 0.089104 1.18456e-21)
(1.07664 0.0874332 5.56937e-22)
(1.07229 0.0855928 -1.16176e-21)
(1.06803 0.0835889 1.94931e-21)
(1.06387 0.0814292 -1.31109e-21)
(1.05981 0.079123 -3.20765e-22)
(1.05588 0.076681 -3.37642e-22)
(1.05207 0.0741154 1.38424e-21)
(1.0484 0.0714397 -9.44831e-22)
(1.04487 0.0686688 8.92355e-22)
(1.04149 0.0658185 -4.42184e-22)
(1.03826 0.0629054 2.19469e-23)
(1.03518 0.0599469 -2.02236e-23)
(1.03227 0.0569605 -2.9088e-22)
(1.02952 0.0539639 8.64614e-23)
(1.02694 0.0509746 2.58331e-22)
(1.02452 0.0480095 9.43779e-23)
(1.20722 0.0691775 8.38251e-21)
(1.20372 0.0716647 1.87052e-20)
(1.20022 0.0740808 -1.65799e-22)
(1.19678 0.076325 1.3402e-20)
(1.19326 0.0785092 -3.04757e-21)
(1.18964 0.0806312 -2.54331e-20)
(1.18594 0.0826666 2.41379e-20)
(1.18215 0.0846087 -5.29514e-21)
(1.17827 0.0864538 -2.61283e-22)
(1.17431 0.0881966 -1.22895e-20)
(1.17027 0.089832 1.61886e-20)
(1.16616 0.091355 -4.34379e-22)
(1.16197 0.0927611 -1.11618e-20)
(1.15772 0.0940453 -2.7056e-21)
(1.15341 0.0952029 4.97655e-21)
(1.14905 0.096229 -3.93216e-22)
(1.14463 0.0971187 -3.74866e-21)
(1.14016 0.0978671 2.66723e-21)
(1.13566 0.0984692 -3.77866e-21)
(1.13112 0.0989201 -7.33101e-21)
(1.12656 0.0992149 1.42875e-21)
(1.12197 0.0993491 7.04652e-21)
(1.11737 0.0993181 -3.05939e-21)
(1.11276 0.0991177 -3.096e-21)
(1.10815 0.0987442 7.93331e-21)
(1.10355 0.0981944 -1.47127e-21)
(1.09897 0.0974656 3.31548e-21)
(1.09441 0.0965561 -1.07168e-22)
(1.08989 0.0954649 -3.3303e-22)
(1.08541 0.0941921 -6.29658e-21)
(1.08099 0.092739 1.00172e-20)
(1.07662 0.091108 -3.24413e-21)
(1.07233 0.0893031 -1.087e-21)
(1.06813 0.0873295 -2.00905e-22)
(1.06401 0.0851941 3.52104e-22)
(1.06 0.0829052 6.51158e-22)
(1.0561 0.0804728 -1.7195e-21)
(1.05231 0.0779081 -4.6966e-22)
(1.04866 0.0752241 8.6628e-22)
(1.04514 0.0724348 -7.92124e-22)
(1.04176 0.0695556 7.19666e-22)
(1.03853 0.0666027 7.49889e-22)
(1.03545 0.0635932 -2.12456e-22)
(1.03252 0.0605447 -3.06737e-22)
(1.02976 0.057475 5.52016e-23)
(1.02715 0.054402 2.17245e-22)
(1.02471 0.0513432 1.80919e-23)
(1.02242 0.0483154 -7.96351e-23)
(1.20087 0.0740999 -7.51308e-21)
(1.19732 0.0765327 -1.23033e-20)
(1.19372 0.0788983 7.38483e-21)
(1.1902 0.0810908 7.91648e-21)
(1.1866 0.0832178 -1.8209e-20)
(1.18292 0.0852795 2.81232e-20)
(1.17917 0.0872525 -2.11275e-20)
(1.17535 0.0891289 1.22353e-20)
(1.17145 0.0909046 5.63998e-21)
(1.16749 0.0925743 -1.31697e-20)
(1.16346 0.0941325 -1.82777e-21)
(1.15936 0.0955745 8.78992e-21)
(1.15521 0.0968955 5.37205e-21)
(1.151 0.0980907 -2.21686e-20)
(1.14674 0.0991554 2.71424e-20)
(1.14243 0.100085 -2.42229e-20)
(1.13808 0.100874 1.63013e-20)
(1.13369 0.101519 -3.10108e-21)
(1.12928 0.102014 -4.25166e-21)
(1.12483 0.102354 -1.4423e-22)
(1.12037 0.102535 3.37562e-21)
(1.11589 0.102552 3.3462e-21)
(1.1114 0.1024 -8.99047e-21)
(1.10691 0.102077 3.43923e-21)
(1.10243 0.101577 4.56251e-21)
(1.09796 0.100899 -2.90267e-21)
(1.09351 0.10004 1.6471e-21)
(1.0891 0.0989981 -4.91679e-21)
(1.08472 0.0977733 7.73664e-21)
(1.08039 0.0963661 -7.60322e-21)
(1.07612 0.094778 3.15461e-21)
(1.07191 0.0930124 -1.15389e-21)
(1.06778 0.0910734 1.82882e-21)
(1.06373 0.0889672 -1.65335e-21)
(1.05978 0.0867012 1.30609e-21)
(1.05593 0.0842843 -4.56511e-22)
(1.05219 0.0817271 9.88691e-22)
(1.04858 0.0790415 5.89165e-22)
(1.04509 0.0762411 -3.03324e-22)
(1.04173 0.0733405 -7.67093e-22)