/*--------------------------------*- C++ -*----------------------------------*\
  =========                 |
  \\      /  F ield         | OpenFOAM: The Open Source CFD Toolbox
   \\    /   O peration     | Website:  https://openfoam.org
    \\  /    A nd           | Version:  7
     \\/     M anipulation  |
\*---------------------------------------------------------------------------*/
FoamFile
{
    version     2.0;
    format      ascii;
    class       volScalarField;
    location    "30";
    object      p;
}
// * * * * * * * * * * * * * * * * * * * * * * * * * * * * * * * * * * * * * //

dimensions      [0 2 -2 0 0 0 0];

internalField   nonuniform List<scalar> 
2625
(
-0.390487
-0.392943
-0.387288
-0.380235
-0.370528
-0.359553
-0.347505
-0.334786
-0.321642
-0.308272
-0.294846
-0.281496
-0.390764
-0.393133
-0.387461
-0.380371
-0.370648
-0.359655
-0.347595
-0.334866
-0.321715
-0.308339
-0.294907
-0.281552
-0.391318
-0.393514
-0.387808
-0.380644
-0.370888
-0.359859
-0.347776
-0.335027
-0.321861
-0.308472
-0.295029
-0.281663
-0.392146
-0.394085
-0.388325
-0.381052
-0.371246
-0.360163
-0.348047
-0.335268
-0.322079
-0.308671
-0.295211
-0.28183
-0.393248
-0.394843
-0.389014
-0.381595
-0.371723
-0.360568
-0.348406
-0.335587
-0.322368
-0.308934
-0.295453
-0.282051
-0.394619
-0.395788
-0.389871
-0.38227
-0.372316
-0.361072
-0.348853
-0.335984
-0.322727
-0.309262
-0.295753
-0.282325
-0.396257
-0.396917
-0.390895
-0.383076
-0.373024
-0.361673
-0.349385
-0.336457
-0.323156
-0.309652
-0.29611
-0.282651
-0.398158
-0.398227
-0.392083
-0.384012
-0.373845
-0.36237
-0.350003
-0.337005
-0.323651
-0.310103
-0.296524
-0.283028
-0.400317
-0.399716
-0.393433
-0.385074
-0.374777
-0.36316
-0.350703
-0.337626
-0.324213
-0.310614
-0.296991
-0.283454
-0.40273
-0.401379
-0.394941
-0.38626
-0.375817
-0.364042
-0.351483
-0.338318
-0.324838
-0.311182
-0.297511
-0.283928
-0.40539
-0.403214
-0.396604
-0.387568
-0.376963
-0.365013
-0.352342
-0.339078
-0.325524
-0.311806
-0.298081
-0.284447
-0.271013
-0.408292
-0.405215
-0.398418
-0.388994
-0.378212
-0.36607
-0.353276
-0.339905
-0.32627
-0.312483
-0.298699
-0.28501
-0.271521
-0.411428
-0.407379
-0.400378
-0.390534
-0.379561
-0.367211
-0.354283
-0.340795
-0.327072
-0.31321
-0.299362
-0.285614
-0.272066
-0.414793
-0.409699
-0.40248
-0.392185
-0.381005
-0.368432
-0.35536
-0.341747
-0.327929
-0.313986
-0.30007
-0.286257
-0.272645
-0.418381
-0.412169
-0.40472
-0.393944
-0.382543
-0.36973
-0.356504
-0.342756
-0.328836
-0.314808
-0.300818
-0.286937
-0.273257
-0.422175
-0.414792
-0.407092
-0.395805
-0.384169
-0.371102
-0.357713
-0.343821
-0.329793
-0.315672
-0.301604
-0.28765
-0.273899
-0.426173
-0.417554
-0.409591
-0.397765
-0.385881
-0.372545
-0.358982
-0.344939
-0.330795
-0.316577
-0.302425
-0.288395
-0.274569
-0.430367
-0.420451
-0.412211
-0.399819
-0.387673
-0.374055
-0.360309
-0.346105
-0.33184
-0.317519
-0.30328
-0.289168
-0.275264
-0.434747
-0.423477
-0.414947
-0.401963
-0.389543
-0.375628
-0.36169
-0.347318
-0.332925
-0.318495
-0.304164
-0.289967
-0.27598
-0.439303
-0.426625
-0.417793
-0.404193
-0.391486
-0.377261
-0.363122
-0.348573
-0.334047
-0.319503
-0.305074
-0.290789
-0.276717
-0.444026
-0.429889
-0.420744
-0.406502
-0.393498
-0.37895
-0.364601
-0.349869
-0.335202
-0.320539
-0.306009
-0.291631
-0.277469
-0.263492
-0.448906
-0.433262
-0.423791
-0.408887
-0.395573
-0.380692
-0.366124
-0.351201
-0.336388
-0.3216
-0.306965
-0.29249
-0.278236
-0.26416
-0.453933
-0.436736
-0.426931
-0.411342
-0.397709
-0.382482
-0.367688
-0.352566
-0.337601
-0.322684
-0.307939
-0.293363
-0.279014
-0.264837
-0.459096
-0.440306
-0.430155
-0.413862
-0.3999
-0.384316
-0.369289
-0.353961
-0.338839
-0.323787
-0.308928
-0.294247
-0.279799
-0.265519
-0.464385
-0.443963
-0.433458
-0.416443
-0.402142
-0.386191
-0.370924
-0.355383
-0.340098
-0.324907
-0.309928
-0.29514
-0.280588
-0.266203
-0.46979
-0.4477
-0.436833
-0.419079
-0.40443
-0.388103
-0.372588
-0.356829
-0.341375
-0.326039
-0.310937
-0.296036
-0.281379
-0.266887
-0.475298
-0.45151
-0.440273
-0.421764
-0.406761
-0.390049
-0.374279
-0.358295
-0.342667
-0.327182
-0.311952
-0.296935
-0.282168
-0.267566
-0.253337
-0.480901
-0.455385
-0.443771
-0.424494
-0.409128
-0.392023
-0.375993
-0.359778
-0.343971
-0.328331
-0.312968
-0.297831
-0.282952
-0.268237
-0.253896
-0.486585
-0.459316
-0.44732
-0.427263
-0.411528
-0.394022
-0.377726
-0.361275
-0.345283
-0.329484
-0.313983
-0.298721
-0.283726
-0.268897
-0.254442
-0.492341
-0.463297
-0.450914
-0.430065
-0.413956
-0.396043
-0.379475
-0.362782
-0.3466
-0.330636
-0.314993
-0.299603
-0.284487
-0.269543
-0.254971
-0.498156
-0.467319
-0.454544
-0.432896
-0.416407
-0.39808
-0.381236
-0.364295
-0.347918
-0.331784
-0.315994
-0.30047
-0.285231
-0.270169
-0.255478
-0.50402
-0.471373
-0.458205
-0.435749
-0.418876
-0.400131
-0.383005
-0.365812
-0.349234
-0.332925
-0.316983
-0.301321
-0.285953
-0.270772
-0.255961
-0.240794
-0.509919
-0.475452
-0.461888
-0.438618
-0.421359
-0.40219
-0.384778
-0.367327
-0.350544
-0.334054
-0.317954
-0.302149
-0.286649
-0.271347
-0.256414
-0.241146
-0.515844
-0.479548
-0.465587
-0.441499
-0.42385
-0.404253
-0.386552
-0.368838
-0.351844
-0.335168
-0.318904
-0.302951
-0.287314
-0.27189
-0.256833
-0.241476
-0.52178
-0.483651
-0.469293
-0.444385
-0.426344
-0.406316
-0.388321
-0.37034
-0.35313
-0.336261
-0.319827
-0.303721
-0.287943
-0.272394
-0.257214
-0.241781
-0.527717
-0.487753
-0.472999
-0.44727
-0.428836
-0.408375
-0.390082
-0.371829
-0.354397
-0.337329
-0.320719
-0.304453
-0.28853
-0.272855
-0.257551
-0.242058
-0.228002
-0.533641
-0.491845
-0.476697
-0.450148
-0.43132
-0.410424
-0.39183
-0.3733
-0.35564
-0.338367
-0.321575
-0.305143
-0.289068
-0.273264
-0.257838
-0.242301
-0.22805
-0.539544
-0.495922
-0.480383
-0.453015
-0.433794
-0.41246
-0.393561
-0.374749
-0.356855
-0.339371
-0.322388
-0.305783
-0.289551
-0.273616
-0.258067
-0.242504
-0.228069
-0.545414
-0.499978
-0.484051
-0.455867
-0.436252
-0.414479
-0.395272
-0.376173
-0.358038
-0.340334
-0.323153
-0.306367
-0.289972
-0.273902
-0.258232
-0.242658
-0.228067
-0.211019
-0.551205
-0.503971
-0.487664
-0.458673
-0.438669
-0.416459
-0.396944
-0.377555
-0.359175
-0.341245
-0.323859
-0.306886
-0.290321
-0.274113
-0.258321
-0.242748
-0.228043
-0.211953
-0.556828
-0.507817
-0.491145
-0.461369
-0.440991
-0.418358
-0.398541
-0.378867
-0.360243
-0.342086
-0.324493
-0.307328
-0.290589
-0.274238
-0.258324
-0.242756
-0.227961
-0.212898
-0.562478
-0.511706
-0.494667
-0.4641
-0.443338
-0.42027
-0.400139
-0.380165
-0.361282
-0.342884
-0.325068
-0.307698
-0.290773
-0.274269
-0.258225
-0.24265
-0.227757
-0.213612
-0.201146
-0.568076
-0.515561
-0.498157
-0.466806
-0.445659
-0.422153
-0.401702
-0.38142
-0.362269
-0.343618
-0.325568
-0.307983
-0.290862
-0.274196
-0.258011
-0.242412
-0.227397
-0.213951
-0.199642
-0.573574
-0.519337
-0.501576
-0.469452
-0.447924
-0.423983
-0.403209
-0.382615
-0.363187
-0.344275
-0.325983
-0.308172
-0.290846
-0.274006
-0.257673
-0.242025
-0.226866
-0.21391
-0.198141
-0.203448
-0.578958
-0.523024
-0.504915
-0.472032
-0.450128
-0.425753
-0.404653
-0.383742
-0.364031
-0.344848
-0.326303
-0.308257
-0.290715
-0.273692
-0.257198
-0.241475
-0.22616
-0.213513
-0.196652
-0.203874
-0.584218
-0.526615
-0.50817
-0.474541
-0.452265
-0.427458
-0.40603
-0.384796
-0.364792
-0.34533
-0.326521
-0.308228
-0.290461
-0.273242
-0.256576
-0.240755
-0.225273
-0.212781
-0.195095
-0.203169
-0.589342
-0.530101
-0.511329
-0.476969
-0.454326
-0.42909
-0.407331
-0.385767
-0.365462
-0.34571
-0.326627
-0.308078
-0.290073
-0.272648
-0.2558
-0.239854
-0.2242
-0.211738
-0.193446
-0.201601
-0.594313
-0.533471
-0.514383
-0.479309
-0.456304
-0.430641
-0.408547
-0.386647
-0.366033
-0.345981
-0.326613
-0.307796
-0.289545
-0.271902
-0.25486
-0.238769
-0.222939
-0.210408
-0.191694
-0.199405
-0.599118
-0.536713
-0.517321
-0.48155
-0.458189
-0.432101
-0.409669
-0.387428
-0.366495
-0.346132
-0.326469
-0.307373
-0.288865
-0.270995
-0.253749
-0.237495
-0.221487
-0.208812
-0.189828
-0.196743
-0.603742
-0.539815
-0.520133
-0.483684
-0.459972
-0.433463
-0.410689
-0.388099
-0.366839
-0.346155
-0.326186
-0.306801
-0.288028
-0.269919
-0.252462
-0.236028
-0.219844
-0.206972
-0.187839
-0.19373
-0.608169
-0.542767
-0.522807
-0.4857
-0.461643
-0.434716
-0.411596
-0.388652
-0.367055
-0.34604
-0.325755
-0.306071
-0.287022
-0.268667
-0.250993
-0.234367
-0.218008
-0.204903
-0.185717
-0.190451
-0.612385
-0.545556
-0.525333
-0.487589
-0.463192
-0.43585
-0.412382
-0.389075
-0.367132
-0.345777
-0.325165
-0.305174
-0.285842
-0.267234
-0.249336
-0.23251
-0.215981
-0.202621
-0.183456
-0.186965
-0.616373
-0.548171
-0.527697
-0.489339
-0.464609
-0.436855
-0.413034
-0.389359
-0.367061
-0.345355
-0.324407
-0.304101
-0.28448
-0.265612
-0.247487
-0.230456
-0.213762
-0.200138
-0.181051
-0.183318
-0.620119
-0.550597
-0.529889
-0.490939
-0.465883
-0.43772
-0.413542
-0.389493
-0.366831
-0.344765
-0.323473
-0.302843
-0.282927
-0.263796
-0.245443
-0.228204
-0.211353
-0.197463
-0.178499
-0.179539
-0.623606
-0.552823
-0.531896
-0.492378
-0.467002
-0.438434
-0.413896
-0.389466
-0.366431
-0.343996
-0.322353
-0.301393
-0.281178
-0.261781
-0.243201
-0.225754
-0.208754
-0.194605
-0.175795
-0.175649
-0.626818
-0.554836
-0.533705
-0.493646
-0.467955
-0.438986
-0.414084
-0.389266
-0.36585
-0.343039
-0.321037
-0.299743
-0.279226
-0.259563
-0.240756
-0.223106
-0.205967
-0.19157
-0.172937
-0.171662
-0.629739
-0.556623
-0.535303
-0.494728
-0.46873
-0.439364
-0.414093
-0.388882
-0.365078
-0.341884
-0.319516
-0.297884
-0.277065
-0.257136
-0.238108
-0.220261
-0.202993
-0.188363
-0.169924
-0.167587
-0.632351
-0.558169
-0.536678
-0.495614
-0.469314
-0.439555
-0.413913
-0.388303
-0.364104
-0.34052
-0.317783
-0.295811
-0.274689
-0.254498
-0.235253
-0.217217
-0.199832
-0.184988
-0.166755
-0.163429
-0.634638
-0.559462
-0.537815
-0.49629
-0.469695
-0.439548
-0.413531
-0.387517
-0.362916
-0.338937
-0.315828
-0.293515
-0.272093
-0.251645
-0.232191
-0.213976
-0.196485
-0.181448
-0.163428
-0.159188
-0.636584
-0.560487
-0.538701
-0.496744
-0.469861
-0.43933
-0.412934
-0.386513
-0.361505
-0.337127
-0.313644
-0.290992
-0.269273
-0.248575
-0.228921
-0.210538
-0.192956
-0.177745
-0.159943
-0.154865
-0.63817
-0.561231
-0.539323
-0.496962
-0.469797
-0.438887
-0.412111
-0.385278
-0.359859
-0.33508
-0.311222
-0.288233
-0.266224
-0.245284
-0.225441
-0.206903
-0.189243
-0.173882
-0.156301
-0.150459
-0.639381
-0.561678
-0.539665
-0.496931
-0.469492
-0.438208
-0.411049
-0.383801
-0.357968
-0.332787
-0.308556
-0.285235
-0.262943
-0.24177
-0.22175
-0.203073
-0.185349
-0.16986
-0.152502
-0.145967
-0.640197
-0.561815
-0.539713
-0.496638
-0.46893
-0.437279
-0.409735
-0.382071
-0.355821
-0.330239
-0.305638
-0.281992
-0.259426
-0.238033
-0.21785
-0.199049
-0.181276
-0.165681
-0.148547
-0.141386
-0.640604
-0.561627
-0.539454
-0.496068
-0.468099
-0.436086
-0.408157
-0.380076
-0.35341
-0.327428
-0.302463
-0.278499
-0.25567
-0.234071
-0.213739
-0.194831
-0.177025
-0.161346
-0.144437
-0.136714
-0.640582
-0.5611
-0.538873
-0.495209
-0.466985
-0.434618
-0.406303
-0.377805
-0.350724
-0.324346
-0.299024
-0.274752
-0.251674
-0.229883
-0.209419
-0.190421
-0.172597
-0.156857
-0.140174
-0.131948
-0.640115
-0.56022
-0.537954
-0.494046
-0.465574
-0.43286
-0.40416
-0.375248
-0.347754
-0.320986
-0.295316
-0.270749
-0.247435
-0.225468
-0.20489
-0.18582
-0.167994
-0.152214
-0.135759
-0.127085
-0.639185
-0.558971
-0.536684
-0.492564
-0.463853
-0.4308
-0.401717
-0.372394
-0.344492
-0.317341
-0.291333
-0.266485
-0.242953
-0.220828
-0.200153
-0.18103
-0.163219
-0.14742
-0.131194
-0.122123
-0.637776
-0.557339
-0.535047
-0.490751
-0.461808
-0.428425
-0.398963
-0.369232
-0.340928
-0.313405
-0.287072
-0.261958
-0.238225
-0.215962
-0.195209
-0.176053
-0.158274
-0.142476
-0.126482
-0.11706
-0.635871
-0.555309
-0.53303
-0.488593
-0.459426
-0.425723
-0.395885
-0.365754
-0.337056
-0.309172
-0.282529
-0.257167
-0.233252
-0.21087
-0.19006
-0.17089
-0.15316
-0.137384
-0.121625
-0.111895
-0.633452
-0.552868
-0.530618
-0.486075
-0.456692
-0.422681
-0.392473
-0.361949
-0.332868
-0.304636
-0.2777
-0.252109
-0.228033
-0.205554
-0.184707
-0.165545
-0.14788
-0.132146
-0.116625
-0.106626
-0.630504
-0.550002
-0.527796
-0.483184
-0.453595
-0.419288
-0.388716
-0.35781
-0.328358
-0.299794
-0.272583
-0.246785
-0.222569
-0.200016
-0.179154
-0.160019
-0.142436
-0.126763
-0.111485
-0.101252
-0.627009
-0.546696
-0.524551
-0.479907
-0.450122
-0.415532
-0.384605
-0.353329
-0.323518
-0.294641
-0.267176
-0.241192
-0.216861
-0.194257
-0.173402
-0.154315
-0.136832
-0.121238
-0.106208
-0.0957738
-0.622952
-0.542937
-0.520868
-0.476231
-0.44626
-0.411401
-0.38013
-0.348497
-0.318345
-0.289174
-0.261478
-0.235332
-0.21091
-0.188279
-0.167453
-0.148435
-0.13107
-0.115573
-0.100797
-0.0901912
-0.618318
-0.538712
-0.516736
-0.472143
-0.441997
-0.406886
-0.375281
-0.343308
-0.312833
-0.28339
-0.255486
-0.229205
-0.204718
-0.182084
-0.161311
-0.142384
-0.125153
-0.109772
-0.095255
-0.0845047
-0.61309
-0.534007
-0.512139
-0.467632
-0.437322
-0.401975
-0.370052
-0.337755
-0.306979
-0.277287
-0.249202
-0.222813
-0.198287
-0.175676
-0.154978
-0.136163
-0.119085
-0.103835
-0.0895856
-0.0787155
-0.607252
-0.52881
-0.507066
-0.462683
-0.432223
-0.396661
-0.364434
-0.331834
-0.300778
-0.270864
-0.242625
-0.216155
-0.191619
-0.169057
-0.148459
-0.129776
-0.112867
-0.0977675
-0.0837919
-0.0728248
-0.600792
-0.52311
-0.501505
-0.457288
-0.426692
-0.390933
-0.35842
-0.32554
-0.294229
-0.26412
-0.235756
-0.209236
-0.184717
-0.16223
-0.141755
-0.123226
-0.106505
-0.0915712
-0.0778774
-0.0668345
-0.593709
-0.516907
-0.495453
-0.451441
-0.420721
-0.384787
-0.352006
-0.318869
-0.287329
-0.257055
-0.228597
-0.202056
-0.177584
-0.1552
-0.134872
-0.116518
-0.100001
-0.0852496
-0.0718458
-0.0607466
-0.585995
-0.510195
-0.488902
-0.445134
-0.414303
-0.378217
-0.345188
-0.311819
-0.280079
-0.24967
-0.22115
-0.19462
-0.170223
-0.147969
-0.127813
-0.109655
-0.0933588
-0.0788062
-0.0657006
-0.0545634
-0.577498
-0.502867
-0.481774
-0.438309
-0.407398
-0.371193
-0.337946
-0.304379
-0.272472
-0.241964
-0.213415
-0.186929
-0.16264
-0.140543
-0.120581
-0.10264
-0.0865822
-0.0722438
-0.059445
-0.0482871
-0.567911
-0.494703
-0.473911
-0.430856
-0.399927
-0.363664
-0.330248
-0.296529
-0.264498
-0.233932
-0.205395
-0.178988
-0.154837
-0.132924
-0.113182
-0.0954779
-0.0796747
-0.0655657
-0.0530822
-0.0419197
-0.55808
-0.48628
-0.46572
-0.423057
-0.392086
-0.355759
-0.322178
-0.288323
-0.256192
-0.225596
-0.197099
-0.170803
-0.146819
-0.125119
-0.105619
-0.0881728
-0.0726411
-0.0587771
-0.046618
-0.0354666
-0.547712
-0.477381
-0.457043
-0.414797
-0.383791
-0.347424
-0.313701
-0.279739
-0.247541
-0.21695
-0.18853
-0.162377
-0.138592
-0.117131
-0.097897
-0.0807293
-0.0654856
-0.0518813
-0.0400559
-0.0289303
-0.536658
-0.467902
-0.447804
-0.406023
-0.375007
-0.338633
-0.3048
-0.27077
-0.238542
-0.207996
-0.17969
-0.153715
-0.13016
-0.108966
-0.0900214
-0.0731518
-0.0582124
-0.0448825
-0.0333999
-0.0223143
-0.524916
-0.45784
-0.438002
-0.396733
-0.365732
-0.329386
-0.295478
-0.261417
-0.229201
-0.198739
-0.170584
-0.144823
-0.121529
-0.100628
-0.081997
-0.0654453
-0.0508259
-0.0377847
-0.0266541
-0.0156223
-0.512496
-0.447203
-0.42764
-0.386927
-0.355966
-0.319684
-0.285736
-0.251685
-0.21952
-0.189183
-0.161218
-0.135706
-0.112704
-0.0921245
-0.0738288
-0.0576143
-0.0433308
-0.0305922
-0.0198226
-0.00885815
-0.499393
-0.435989
-0.416715
-0.376603
-0.345708
-0.309528
-0.275576
-0.241577
-0.209505
-0.179334
-0.151598
-0.12637
-0.103692
-0.0834595
-0.0655221
-0.0496638
-0.0357315
-0.0233094
-0.0129106
-0.00202446
-0.485606
-0.424192
-0.405224
-0.365759
-0.334958
-0.298918
-0.265002
-0.231098
-0.199161
-0.169198
-0.14173
-0.116822
-0.0944977
-0.0746394
-0.0570825
-0.041599
-0.0280329
-0.0159409
-0.0059251
0.00487787
-0.471133
-0.411813
-0.393165
-0.354393
-0.323714
-0.287856
-0.254016
-0.220251
-0.188495
-0.158782
-0.131622
-0.107068
-0.0851284
-0.0656701
-0.0485154
-0.033425
-0.0202397
-0.00849105
0.00112954
0.0118387
-0.455974
-0.39885
-0.380538
-0.342505
-0.31198
-0.276346
-0.242624
-0.209043
-0.177512
-0.148093
-0.12128
-0.0971152
-0.0755906
-0.0565578
-0.0398266
-0.025147
-0.0123569
-0.000965243
0.00826777
0.018841
-0.440131
-0.385304
-0.367343
-0.330098
-0.299757
-0.26439
-0.23083
-0.19748
-0.16622
-0.137139
-0.110711
-0.0869712
-0.0658911
-0.0473089
-0.031022
-0.0167704
-0.00438947
0.00663115
0.0154684
0.0258965
-0.423608
-0.371177
-0.353583
-0.317172
-0.28705
-0.251995
-0.218641
-0.18557
-0.154627
-0.125927
-0.0999251
-0.0766433
-0.0560372
-0.03793
-0.0221076
-0.0083013
0.00365754
0.0142948
0.0227266
0.0329995
-0.406409
-0.356472
-0.33926
-0.303732
-0.273862
-0.239166
-0.206065
-0.173322
-0.142742
-0.114466
-0.088929
-0.0661397
-0.046036
-0.0284279
-0.0130898
0.000255193
0.0117786
0.0220207
0.0300391
0.0401439
-0.388541
-0.341192
-0.32438
-0.289782
-0.2602
-0.225911
-0.193109
-0.160743
-0.130574
-0.102766
-0.077732
-0.0554683
-0.0358953
-0.0188095
-0.00397471
0.00889312
0.0199683
0.0298038
0.0374019
0.0473249
-0.370012
-0.325344
-0.308946
-0.275329
-0.246071
-0.212237
-0.179783
-0.147844
-0.118132
-0.0908361
-0.066343
-0.0446376
-0.0256227
-0.0090818
0.00523115
0.0176065
0.0282213
0.037639
0.0448101
0.0545375
-0.350832
-0.308934
-0.292968
-0.260379
-0.231484
-0.198153
-0.166096
-0.134634
-0.105427
-0.0786857
-0.0547714
-0.0336565
-0.0152261
0.00074792
0.0145212
0.0263894
0.036532
0.045521
0.0522591
0.0617768
-0.331012
-0.29197
-0.276452
-0.24494
-0.216446
-0.183671
-0.15206
-0.121126
-0.0924703
-0.0663256
-0.0430269
-0.0225337
-0.00471381
0.0106722
0.0238886
0.0352357
0.0448949
0.0534447
0.0597443
0.0690378
-0.310563
-0.274461
-0.259408
-0.229022
-0.200969
-0.1688
-0.137685
-0.107329
-0.0792721
-0.0537663
-0.0311195
-0.0112783
0.00590599
0.0206836
0.0333266
0.0441389
0.053304
0.0614047
0.0672608
-0.2895
-0.256418
-0.241847
-0.212636
-0.185064
-0.153552
-0.122984
-0.0932568
-0.0658446
-0.0410191
-0.0190593
0.000100167
0.0166248
0.0307744
0.0428282
0.0530929
0.0617537
0.0693956
-0.267839
-0.237853
-0.22378
-0.195793
-0.168744
-0.137941
-0.107971
-0.0789219
-0.0522
-0.0280953
-0.00685707
0.0115923
0.0274338
0.0409367
0.0523863
0.0620912
0.070238
-0.245595
-0.218778
-0.205222
-0.178506
-0.152022
-0.12198
-0.092658
-0.0643375
-0.0383512
-0.0150067
0.0054766
0.0231882
0.0383244
0.0511625
0.0619936
0.071127
-0.222788
-0.199209
-0.186187
-0.16079
-0.134913
-0.105685
-0.0770603
-0.0495181
-0.0243111
-0.00176546
0.0179307
0.034878
0.0492875
0.0614438
0.0716428
-0.199437
-0.179162
-0.16669
-0.142659
-0.117432
-0.089069
-0.0611933
-0.0344776
-0.0100932
0.0116161
0.0304939
0.0466515
0.060314
0.0717724
-0.175562
-0.158652
-0.146749
-0.124131
-0.0995966
-0.0721502
-0.0450727
-0.019231
0.00428857
0.0251254
0.0431549
0.0584986
0.0713947
0.0821398
-0.151187
-0.137698
-0.126382
-0.105223
-0.0814233
-0.0549453
-0.0287148
-0.00379383
0.01882
0.0387495
0.0559021
0.0704087
0.0825201
-0.126334
-0.116321
-0.105608
-0.0859527
-0.0629311
-0.037472
-0.0121367
0.0118181
0.0334867
0.0524753
0.0687235
0.0823714
-0.101028
-0.0945391
-0.0844481
-0.0663407
-0.0441393
-0.0197487
0.00464415
0.0275887
0.0482737
0.0662894
0.0816074
0.0943758
-0.0752959
-0.0723761
-0.0629235
-0.0464071
-0.025068
-0.00179468
0.0216096
0.0435011
0.063166
0.0801783
0.0945417
-0.0491613
-0.0498564
-0.0410573
-0.0261735
-0.00573826
0.0163702
0.0387411
0.0595385
0.0781483
0.0941283
0.107514
-0.022653
-0.0270038
-0.0188734
-0.00566234
0.0138281
0.0347255
0.0560197
0.0756836
0.093205
0.108125
0.00419185
-0.00383639
0.00360341
0.015103
0.0336087
0.0532502
0.073426
0.0919188
0.10832
0.122156
0.0313507
0.0196136
0.0263473
0.0360982
0.0535803
0.0719228
0.0909402
0.108226
0.123478
0.0587931
0.0433187
0.0493316
0.0572983
0.0737191
0.0907213
0.108542
0.124588
0.138663
0.086487
0.0672515
0.0725286
0.0786776
0.0940007
0.109623
0.126212
0.140986
0.153858
0.114402
0.0913834
0.0959102
0.10021
0.1144
0.128606
0.143928
0.157401
0.142506
0.115686
0.119448
0.121868
0.134892
0.147646
0.16167
0.173815
0.170765
0.140125
0.14311
0.143624
0.155451
0.166721
0.179416
0.190209
0.199119
0.164652
0.166855
0.165443
0.176046
0.185803
0.197145
0.227528
0.189228
0.190649
0.187295
0.196649
0.20487
0.214835
0.256215
0.213979
0.214553
0.209206
0.217266
0.223912
0.232471
0.285671
0.239197
0.23873
0.231258
0.237929
0.242937
0.314291
0.263919
0.262584
0.253094
0.258429
0.261826
0.342576
0.28845
0.286291
0.274808
0.278808
0.28059
0.370742
0.312908
0.309906
0.296421
0.299068
0.29922
0.398746
0.337247
0.333392
0.3179
0.319178
0.317692
0.426525
0.361417
0.356703
0.339208
0.339109
0.45404
0.385379
0.379805
0.360314
0.358832
0.481255
0.409099
0.402665
0.381189
0.378321
0.508135
0.432544
0.425251
0.401803
0.397548
0.534641
0.455677
0.447528
0.422126
0.416487
0.560735
0.478465
0.469463
0.442127
0.586381
0.500872
0.491025
0.461779
0.611541
0.522865
0.51218
0.481051
0.636178
0.544411
0.532898
0.499916
0.660256
0.565476
0.553146
0.518346
0.683738
0.586027
0.572894
0.536313
0.706589
0.606034
0.592113
0.55379
0.728775
0.625464
0.610771
0.570752
0.750262
0.644288
0.628842
0.771017
0.662476
0.646297
0.791007
0.679998
0.663109
0.810203
0.696828
0.679251
0.828574
0.712938
0.6947
0.846092
0.728303
0.70943
0.862728
0.742897
0.723418
0.878458
0.756699
0.736643
0.893257
0.769685
0.749084
0.9071
0.781834
0.760721
0.919967
0.793126
0.771536
0.931836
0.803544
0.781511
0.94269
0.81307
0.790631
0.952509
0.821688
0.96128
0.829385
0.968987
0.836148
0.975618
0.841965
0.981162
0.846827
0.98561
0.850726
0.988953
0.853655
0.991189
0.85561
0.992313
0.856591
-0.0422434
-0.0480658
-0.053791
-0.0594146
-0.0649324
-0.0703401
-0.0756338
-0.0808094
-0.0858627
-0.09079
-0.0955873
-0.100251
-0.104777
-0.109162
-0.113404
-0.117498
-0.121444
-0.125238
-0.128879
-0.132367
-0.135702
-0.138884
-0.141916
-0.144802
-0.147547
-0.150157
-0.152642
-0.155015
-0.157289
-0.159484
-0.161622
-0.163732
-0.165848
-0.168012
-0.170276
-0.0407411
-0.0464712
-0.0521042
-0.0576356
-0.0630612
-0.0683772
-0.0735798
-0.0786649
-0.0836289
-0.0884682
-0.0931791
-0.0977583
-0.102203
-0.106509
-0.110675
-0.114699
-0.118579
-0.122313
-0.125902
-0.129347
-0.132648
-0.135809
-0.138834
-0.14173
-0.144505
-0.14717
-0.149739
-0.15223
-0.154665
-0.157073
-0.159487
-0.161952
-0.164523
-0.167269
-0.170286
-0.0392676
-0.044923
-0.050485
-0.0559488
-0.0613108
-0.0665673
-0.0717149
-0.07675
-0.0816693
-0.0864695
-0.0911477
-0.0957009
-0.100127
-0.104422
-0.108586
-0.112617
-0.116513
-0.120275
-0.123903
-0.127398
-0.130763
-0.134
-0.137116
-0.140117
-0.143011
-0.145811
-0.148529
-0.151184
-0.153796
-0.156394
-0.159009
-0.161683
-0.164469
-0.167435
-0.170674
-0.0377949
-0.0433797
-0.0488745
-0.0542749
-0.0595774
-0.0647785
-0.0698749
-0.0748633
-0.0797406
-0.0845038
-0.0891501
-0.0936768
-0.0980817
-0.102363
-0.106518
-0.110547
-0.114448
-0.118221
-0.121868
-0.125389
-0.128786
-0.132065
-0.135228
-0.138284
-0.14124
-0.144106
-0.146897
-0.149629
-0.152321
-0.154999
-0.157694
-0.160443
-0.163297
-0.166318
-0.169594
-0.0363215
-0.0418345
-0.0472607
-0.0525958
-0.0578363
-0.062979
-0.0680207
-0.0729583
-0.0777887
-0.0825092
-0.0871172
-0.0916101
-0.0959859
-0.100243
-0.104379
-0.108394
-0.112286
-0.116057
-0.119706
-0.123235
-0.126647
-0.129946
-0.133136
-0.136224
-0.139218
-0.142128
-0.144969
-0.147755
-0.150506
-0.153248
-0.156009
-0.158829
-0.161754
-0.164846
-0.168188
-0.0661639
-0.0710493
-0.0758314
-0.0805076
-0.0850754
-0.0895327
-0.0938774
-0.0981078
-0.102223
-0.106221
-0.110103
-0.113868
-0.117518
-0.121054
-0.124479
-0.127796
-0.131012
-0.134131
-0.137163
-0.140118
-0.143009
-0.145851
-0.148665
-0.151473
-0.154306
-0.157201
-0.160202
-0.163369
-0.166781
-0.0785095
-0.083037
-0.0874582
-0.0917715
-0.0959752
-0.100068
-0.10405
-0.107921
-0.11168
-0.11533
-0.118871
-0.122308
-0.125643
-0.128881
-0.132031
-0.135098
-0.138094
-0.141032
-0.143927
-0.146797
-0.149665
-0.15256
-0.155517
-0.158578
-0.161799
-0.165252
-0.0853862
-0.0896672
-0.0938432
-0.0979133
-0.101877
-0.105735
-0.109486
-0.113133
-0.116678
-0.120123
-0.123472
-0.12673
-0.129904
-0.133002
-0.136033
-0.139011
-0.141949
-0.144866
-0.147783
-0.150728
-0.153733
-0.156837
-0.160092
-0.163564
-0.0957562
-0.0997001
-0.103542
-0.107284
-0.110926
-0.11447
-0.11792
-0.121279
-0.124553
-0.127747
-0.130869
-0.13393
-0.136941
-0.139915
-0.142871
-0.145829
-0.148813
-0.151855
-0.154991
-0.158267
-0.161743
-0.101346
-0.105075
-0.108709
-0.11225
-0.115702
-0.119068
-0.122353
-0.125562
-0.128705
-0.13179
-0.134827
-0.137832
-0.140819
-0.143809
-0.146824
-0.149894
-0.153051
-0.156338
-0.159807
-0.163501
-0.10286
-0.106484
-0.11002
-0.11347
-0.116839
-0.120132
-0.123353
-0.126511
-0.129614
-0.132673
-0.135701
-0.138713
-0.141727
-0.144765
-0.147853
-0.151022
-0.15431
-0.157762
-0.161418
-0.10778
-0.111226
-0.114595
-0.117891
-0.121119
-0.124288
-0.127404
-0.130479
-0.133525
-0.136555
-0.139586
-0.142639
-0.145738
-0.14891
-0.152189
-0.155616
-0.159228
-0.112335
-0.115631
-0.118863
-0.122038
-0.125163
-0.128248
-0.131305
-0.134347
-0.137389
-0.14045
-0.143551
-0.146718
-0.149983
-0.153377
-0.156938
-0.113355
-0.116586
-0.119762
-0.122891
-0.125982
-0.129045
-0.132093
-0.135139
-0.138201
-0.141299
-0.144454
-0.147696
-0.151052
-0.154558
-0.117464
-0.120592
-0.123684
-0.126747
-0.129795
-0.13284
-0.135897
-0.138984
-0.142122
-0.145336
-0.148648
-0.152096
-0.118267
-0.121355
-0.124414
-0.127457
-0.130495
-0.133541
-0.136613
-0.139728
-0.142908
-0.146174
-0.149559
-0.122049
-0.125082
-0.128108
-0.131139
-0.13419
-0.137276
-0.140418
-0.143634
-0.146955
-0.122673
-0.125682
-0.128693
-0.131718
-0.134773
-0.137873
-0.141035
-0.14429
-0.126209
-0.129205
-0.132223
-0.135278
-0.138384
-0.14157
-0.126653
-0.129632
-0.132639
-0.135687
-0.138803
-0.129961
-0.13295
-0.135994
-0.133151
0.0608304
0.0540078
0.0472168
0.0404614
0.0337458
0.0270737
0.020449
0.0138773
0.0073573
0.000907466
-0.00548241
-0.011804
-0.0180533
-0.024226
-0.0303178
-0.0363238
0.0609828
0.0542329
0.0475168
0.0408382
0.0342012
0.0276095
0.0210667
0.0145791
0.008153
0.00178139
-0.00452215
-0.0107553
-0.0169152
-0.0229976
-0.0289986
-0.0349131
0.0609461
0.0543034
0.0476931
0.0411191
0.0345852
0.0280952
0.0216526
0.015263
0.00891416
0.00265641
-0.00355451
-0.00969733
-0.015769
-0.0217655
-0.0276832
-0.0335171
0.060907
0.0543755
0.0478747
0.0414083
0.03498
0.0285936
0.0222527
0.0159628
0.00971913
0.00354728
-0.00257252
-0.00862629
-0.0146116
-0.0205247
-0.0263619
-0.0321184
0.0608901
0.0544663
0.0480718
0.0417101
0.0353849
0.0290999
0.0228585
0.016666
0.010522
0.0044389
-0.00159017
-0.00755555
-0.013455
-0.0192847
-0.0250413
-0.03072
0.0608796
0.0545622
0.0482726
0.0420145
0.0357912
0.0296065
0.0234638
0.0173677
0.0113193
0.00532759
0.0608711
0.0546595
0.0484745
0.0423194
0.0361977
0.0301129
0.0240683
0.0608657
0.0547594
0.0486782
0.0426256
0.0366048
0.0608641
0.0548623
0.0488843
0.0608665
)
;

boundaryField
{
    inlet
    {
        type            zeroGradient;
    }
    outlet
    {
        type            fixedValue;
        value           nonuniform 0();
    }
    cylinder
    {
        type            zeroGradient;
    }
    top
    {
        type            symmetryPlane;
    }
    bottom
    {
        type            symmetryPlane;
    }
    defaultFaces
    {
        type            empty;
    }
    procBoundary9to4
    {
        type            processor;
        value           uniform 0.832283;
    }
    procBoundary9to5
    {
        type            processor;
        value           nonuniform List<scalar> 
14
(
-0.390487
-0.392943
-0.387288
-0.380235
-0.370528
-0.359553
-0.347505
-0.334786
-0.321642
-0.308272
-0.294846
-0.281496
0.992313
0.856591
)
;
    }
    procBoundary9to6
    {
        type            processor;
        value           uniform -0.268348;
    }
    procBoundary9to8
    {
        type            processor;
        value           nonuniform List<scalar> 
78
(
0.0748038
0.0748038
0.0774119
0.0774119
0.0787509
0.0787509
0.0801938
0.0801938
0.0813264
0.0813264
0.091037
0.0925376
0.0925376
0.0936809
0.0936809
0.104867
0.106411
0.106411
0.118467
0.120512
0.120512
0.133524
0.136205
0.136205
0.15026
0.164305
0.169048
0.169048
0.184215
0.199343
0.206564
0.206564
0.222861
0.239085
0.250048
0.250048
0.267497
0.284816
0.30199
0.318997
0.335979
0.335979
0.354058
0.371903
0.389492
0.406801
0.435111
0.435111
0.453394
0.47131
0.488833
0.50594
0.522605
0.538805
0.554517
0.587173
0.587173
0.603028
0.618294
0.632946
0.646964
0.660326
0.673011
0.685001
0.696276
0.70682
0.716616
0.72565
0.733907
0.798881
0.798881
0.806248
0.81272
0.818287
0.82294
0.826671
0.829474
0.831345
)
;
    }
    procBoundary9to10
    {
        type            processor;
        value           nonuniform List<scalar> 
58
(
-0.268399
-0.268499
-0.26865
-0.268849
-0.269096
-0.269391
-0.269732
-0.270117
-0.270544
-0.270544
-0.257836
-0.258281
-0.258759
-0.259267
-0.259804
-0.260367
-0.260954
-0.261563
-0.26219
-0.262834
-0.262834
-0.249888
-0.250458
-0.251034
-0.251613
-0.252192
-0.252768
-0.252768
-0.238793
-0.239217
-0.239632
-0.240034
-0.240422
-0.240422
-0.227448
-0.227639
-0.227796
-0.227917
-0.227917
-0.209371
-0.209757
-0.210288
-0.210288
-0.203033
-0.201998
-0.202042
-0.202042
-0.197821
-0.201698
-0.201698
-0.175361
-0.17269
-0.17269
-0.173675
-0.174287
-0.173216
-0.171863
-0.170509
)
;
    }
    procBoundary9to12
    {
        type            processor;
        value           nonuniform List<scalar> 
13
(
0.0763155
0.0676804
0.0763155
0.0676804
0.0677623
0.0676173
0.0674654
0.0673395
0.0672215
0.0671058
0.0669939
0.0668866
0.0667842
)
;
    }
    procBoundary9to13
    {
        type            processor;
        value           nonuniform List<scalar> 
74
(
-0.0348509
-0.0402915
-0.0456484
-0.0509173
-0.0560949
-0.0611781
-0.0611781
-0.0643112
-0.0691442
-0.0738778
-0.0738778
-0.0765151
-0.0810017
-0.0810017
-0.083316
-0.0875636
-0.0917105
-0.0917105
-0.0935978
-0.0975202
-0.0975202
-0.0991452
-0.0991452
-0.10064
-0.104252
-0.104252
-0.105531
-0.10897
-0.10897
-0.110062
-0.110062
-0.111063
-0.11429
-0.11429
-0.115144
-0.115144
-0.115919
-0.118998