/*--------------------------------*- C++ -*----------------------------------*\
  =========                 |
  \\      /  F ield         | OpenFOAM: The Open Source CFD Toolbox
   \\    /   O peration     | Website:  https://openfoam.org
    \\  /    A nd           | Version:  7
     \\/     M anipulation  |
\*---------------------------------------------------------------------------*/
FoamFile
{
    version     2.0;
    format      ascii;
    class       volScalarField;
    location    "5";
    object      p;
}
// * * * * * * * * * * * * * * * * * * * * * * * * * * * * * * * * * * * * * //

dimensions      [0 2 -2 0 0 0 0];

internalField   nonuniform List<scalar> 
10500
(
-0.418913
-0.417621
-0.406879
-0.392076
-0.374131
-0.354128
-0.333174
-0.311462
-0.291543
-0.268976
-0.42002
-0.418336
-0.407481
-0.392539
-0.374512
-0.354435
-0.333423
-0.311624
-0.291752
-0.268673
-0.422225
-0.419759
-0.408679
-0.393463
-0.375268
-0.355045
-0.333917
-0.311946
-0.292165
-0.268067
-0.425507
-0.421878
-0.410462
-0.394835
-0.376392
-0.355951
-0.33465
-0.312422
-0.292779
-0.267165
-0.429835
-0.424672
-0.412812
-0.396642
-0.37787
-0.357141
-0.335613
-0.313044
-0.293586
-0.265974
-0.435172
-0.428117
-0.415708
-0.398866
-0.379687
-0.358603
-0.336794
-0.313804
-0.294574
-0.264504
-0.441474
-0.432179
-0.419122
-0.401486
-0.381825
-0.36032
-0.338181
-0.314693
-0.295729
-0.262772
-0.448686
-0.436822
-0.423024
-0.404476
-0.384261
-0.362275
-0.339758
-0.3157
-0.297032
-0.260796
-0.456731
-0.442019
-0.427379
-0.407809
-0.386974
-0.36445
-0.341507
-0.316816
-0.298462
-0.258597
-0.465554
-0.447715
-0.432151
-0.411456
-0.389937
-0.366823
-0.343413
-0.318033
-0.299989
-0.256204
-0.475083
-0.453863
-0.437299
-0.415386
-0.393126
-0.369375
-0.345456
-0.319344
-0.30158
-0.253651
-0.485237
-0.460414
-0.44278
-0.419565
-0.396514
-0.372084
-0.347618
-0.320746
-0.303193
-0.250977
-0.495934
-0.467313
-0.448552
-0.423962
-0.400073
-0.374929
-0.349878
-0.322237
-0.304779
-0.248235
-0.507089
-0.474508
-0.454569
-0.428542
-0.403776
-0.37789
-0.352218
-0.323822
-0.306277
-0.245494
-0.518613
-0.481939
-0.460784
-0.433269
-0.407595
-0.380944
-0.354616
-0.325512
-0.307627
-0.242884
-0.530414
-0.489548
-0.467148
-0.438106
-0.411499
-0.384067
-0.357054
-0.327324
-0.308763
-0.240603
-0.542396
-0.497272
-0.473612
-0.443017
-0.415458
-0.387234
-0.35951
-0.329282
-0.309563
-0.238729
-0.554467
-0.505054
-0.480127
-0.447964
-0.419438
-0.390417
-0.361975
-0.331427
-0.309763
-0.237022
-0.566527
-0.51283
-0.486642
-0.452906
-0.423405
-0.393583
-0.364447
-0.333841
-0.309371
-0.236968
-0.578437
-0.520501
-0.493071
-0.457772
-0.427292
-0.396669
-0.366887
-0.33653
-0.309697
-0.248482
-0.589999
-0.527904
-0.499274
-0.462446
-0.430995
-0.39957
-0.369156
-0.339148
-0.311812
-0.286489
-0.601349
-0.535195
-0.505388
-0.467038
-0.434591
-0.402313
-0.371186
-0.341305
-0.31202
-0.299558
-0.612303
-0.542217
-0.511272
-0.471425
-0.437963
-0.404778
-0.37283
-0.34272
-0.310969
-0.302844
-0.622709
-0.54885
-0.51682
-0.475514
-0.441022
-0.406872
-0.374006
-0.343358
-0.309536
-0.302841
-0.632448
-0.55501
-0.521955
-0.479232
-0.443693
-0.408518
-0.374645
-0.343196
-0.30768
-0.300519
-0.641401
-0.56061
-0.526596
-0.482505
-0.445898
-0.409636
-0.374672
-0.342198
-0.305222
-0.29628
-0.649443
-0.565555
-0.530653
-0.485245
-0.447552
-0.410141
-0.374009
-0.34033
-0.302074
-0.290565
-0.656442
-0.569744
-0.534031
-0.487363
-0.448562
-0.409943
-0.372575
-0.337563
-0.298179
-0.283707
-0.662264
-0.573074
-0.536627
-0.488759
-0.448832
-0.408952
-0.370293
-0.333866
-0.293487
-0.275923
-0.666774
-0.575435
-0.538336
-0.489331
-0.448261
-0.407078
-0.367089
-0.329208
-0.287956
-0.267349
-0.669832
-0.576715
-0.539046
-0.488973
-0.446747
-0.40423
-0.362889
-0.32356
-0.281548
-0.258065
-0.671298
-0.576798
-0.538642
-0.487574
-0.444187
-0.400319
-0.357628
-0.316891
-0.274236
-0.248115
-0.67103
-0.575567
-0.537007
-0.485024
-0.440478
-0.395262
-0.351244
-0.309172
-0.265994
-0.23752
-0.668888
-0.572903
-0.534025
-0.481211
-0.435519
-0.388977
-0.34368
-0.300378
-0.256805
-0.226282
-0.664734
-0.568688
-0.529576
-0.476025
-0.429215
-0.38139
-0.334888
-0.290487
-0.246657
-0.214396
-0.658432
-0.562804
-0.523544
-0.46936
-0.421474
-0.372433
-0.324828
-0.279484
-0.235543
-0.201853
-0.649854
-0.555141
-0.515819
-0.461114
-0.412214
-0.362049
-0.313466
-0.267359
-0.223465
-0.188647
-0.63889
-0.5456
-0.506302
-0.451198
-0.401363
-0.350191
-0.300782
-0.254107
-0.210426
-0.174771
-0.625431
-0.534088
-0.494898
-0.43953
-0.388858
-0.336822
-0.286762
-0.239732
-0.196441
-0.160226
-0.609234
-0.520419
-0.481458
-0.425996
-0.374625
-0.321902
-0.271396
-0.224244
-0.181526
-0.145017
-0.589898
-0.504302
-0.465769
-0.41045
-0.358574
-0.305391
-0.254678
-0.207654
-0.165703
-0.129157
-0.568271
-0.486247
-0.448151
-0.393092
-0.340835
-0.287378
-0.236673
-0.19001
-0.149009
-0.112662
-0.544007
-0.465985
-0.428407
-0.373787
-0.321332
-0.267833
-0.217384
-0.171333
-0.131472
-0.0955554
-0.516935
-0.443386
-0.406447
-0.352483
-0.300048
-0.246767
-0.196841
-0.151657
-0.113127
-0.0778668
-0.487045
-0.418436
-0.382262
-0.329185
-0.277007
-0.224221
-0.17509
-0.131029
-0.0940184
-0.0596205
-0.454361
-0.391139
-0.35586
-0.303912
-0.252247
-0.200244
-0.152188
-0.109508
-0.0742288
-0.0408156
-0.418914
-0.361511
-0.327265
-0.276703
-0.225819
-0.174898
-0.128198
-0.0871549
-0.053848
-0.0215026
-0.380761
-0.329587
-0.296519
-0.247609
-0.197792
-0.148257
-0.103192
-0.0640211
-0.0326784
-0.00193523
-0.339979
-0.295422
-0.263683
-0.216704
-0.168246
-0.120405
-0.0772502
-0.0401964
-0.0109902
0.0180342
-0.296674
-0.259092
-0.228842
-0.184076
-0.137279
-0.0914378
-0.050461
-0.0157426
0.0111646
0.0383283
-0.250973
-0.220696
-0.192097
-0.149833
-0.104999
-0.0614601
-0.0229194
0.00925922
0.0337382
0.0588692
-0.203026
-0.180349
-0.153571
-0.114098
-0.0715296
-0.0305868
0.00527293
0.0347217
0.0566647
0.0795854
-0.153005
-0.138193
-0.113406
-0.0770084
-0.0370056
0.0010599
0.0340085
0.0605538
0.0798733
0.100399
-0.101094
-0.0943965
-0.0717584
-0.0387213
-0.00157143
0.0333499
0.0631741
0.0866606
0.103291
0.121219
-0.0474895
-0.0491489
-0.0288105
0.000599471
0.0346186
0.0661464
0.0926518
0.112943
0.12684
0.141942
0.00749429
-0.00258129
0.0152491
0.0407754
0.0714018
0.0993076
0.122319
0.139299
0.150444
0.162449
0.0636759
0.0450389
0.0602117
0.0816165
0.108608
0.132687
0.15205
0.165628
0.174043
0.182598
0.120766
0.0934686
0.10585
0.12292
0.146061
0.166133
0.181716
0.191835
0.197606
0.202164
0.178479
0.142464
0.151931
0.16448
0.183581
0.199494
0.211186
0.217829
0.221013
0.220768
0.236779
0.191914
0.198289
0.20612
0.220999
0.23262
0.240333
0.243487
0.243828
0.237739
0.295885
0.241846
0.244821
0.24769
0.258157
0.265366
0.269041
0.268679
0.265513
0.25228
0.353871
0.29114
0.290835
0.288763
0.294788
0.297558
0.297192
0.293324
0.28726
0.270828
0.410967
0.339843
0.336249
0.329208
0.330744
0.329059
0.324666
0.317287
0.30836
0.290056
0.467102
0.387798
0.380871
0.368836
0.365858
0.359725
0.351341
0.34047
0.328561
0.308602
0.521954
0.434712
0.42444
0.407429
0.399951
0.389414
0.377098
0.362792
0.347891
0.326255
0.575191
0.480295
0.466698
0.444774
0.43285
0.417986
0.401828
0.384169
0.366339
0.343044
0.626503
0.52427
0.5074
0.480666
0.464387
0.445309
0.425424
0.404519
0.383856
0.358947
0.675592
0.566373
0.546309
0.514907
0.494403
0.471256
0.447787
0.423765
0.400386
0.373914
0.722168
0.606347
0.583196
0.547308
0.522744
0.495706
0.468822
0.441834
0.415881
0.387901
0.76595
0.643943
0.617842
0.577688
0.549266
0.518545
0.48844
0.458658
0.43029
0.400871
0.806672
0.678929
0.650043
0.605879
0.573833
0.539667
0.506556
0.474174
0.443565
0.412789
0.844087
0.711084
0.679604
0.631724
0.59632
0.558971
0.523093
0.48832
0.45566
0.423623
0.877962
0.740206
0.70635
0.655076
0.61661
0.576369
0.537981
0.501042
0.466532
0.43334
0.908087
0.76611
0.730118
0.675806
0.634598
0.591776
0.551153
0.512289
0.476139
0.441912
0.934275
0.788631
0.750765
0.693796
0.650194
0.605121
0.562553
0.522015
0.484445
0.449311
0.956361
0.807624
0.768166
0.708944
0.663314
0.61634
0.57213
0.530182
0.491418
0.455515
0.974205
0.822967
0.782216
0.721167
0.673892
0.625378
0.579842
0.536756
0.49703
0.460503
0.987693
0.83456
0.792827
0.730393
0.681872
0.632194
0.585656
0.541709
0.501258
0.464258
0.99674
0.842331
0.799937
0.736571
0.687214
0.636754
0.589544
0.545021
0.504086
0.466768
1.00129
0.846233
0.803505
0.739669
0.689891
0.63904
0.591492
0.54668
0.505502
0.468024
1.00129
0.846233
0.803505
0.739669
0.689891
0.63904
0.591492
0.54668
0.505502
0.468024
0.99674
0.842331
0.799937
0.736571
0.687214
0.636754
0.589544
0.545021
0.504086
0.466768
0.987693
0.83456
0.792827
0.730393
0.681872
0.632194
0.585656
0.541709
0.501258
0.464258
0.974205
0.822967
0.782216
0.721167
0.673892
0.625378
0.579842
0.536756
0.49703
0.460503
0.956361
0.807624
0.768166
0.708944
0.663314
0.61634
0.57213
0.530182
0.491418
0.455515
0.934275
0.788631
0.750765
0.693796
0.650193
0.605121
0.562553
0.522015
0.484445
0.449311
0.908087
0.76611
0.730118
0.675806
0.634598
0.591776
0.551153
0.512289
0.476139
0.441912
0.877962
0.740206
0.70635
0.655076
0.61661
0.576369
0.537981
0.501042
0.466532
0.43334
0.844087
0.711084
0.679604
0.631724
0.59632
0.558971
0.523093
0.48832
0.45566
0.423623
0.806672
0.678929
0.650043
0.605879
0.573833
0.539667
0.506556
0.474174
0.443565
0.412789
0.76595
0.643943
0.617842
0.577688
0.549266
0.518545
0.48844
0.458658
0.43029
0.400871
0.722168
0.606347
0.583196
0.547308
0.522744
0.495706
0.468822
0.441834
0.415881
0.387901
0.675592
0.566373
0.546309
0.514907
0.494403
0.471256
0.447787
0.423765
0.400386
0.373914
0.626503
0.52427
0.5074
0.480666
0.464387
0.445309
0.425424
0.404519
0.383856
0.358947
0.575191
0.480295
0.466698
0.444774
0.43285
0.417986
0.401828
0.384169
0.366339
0.343044
0.521954
0.434712
0.42444
0.407429
0.399951
0.389414
0.377098
0.362792
0.347891
0.326255
0.467102
0.387798
0.380871
0.368836
0.365858
0.359725
0.35134
0.34047
0.328561
0.308602
0.410967
0.339843
0.336249
0.329208
0.330744
0.329059
0.324666
0.317287
0.30836
0.290056
0.353871
0.29114
0.290835
0.288763
0.294788
0.297558
0.297192
0.293324
0.28726
0.270828
0.295885
0.241846
0.244821
0.24769
0.258157
0.265366
0.269041
0.268679
0.265513
0.25228
0.236779
0.191914
0.198289
0.20612
0.220999
0.23262
0.240333
0.243487
0.243828
0.237739
0.178479
0.142464
0.151931
0.16448
0.183581
0.199494
0.211186
0.217829
0.221013
0.220768
0.120766
0.0934686
0.10585
0.12292
0.146061
0.166133
0.181716
0.191835
0.197606
0.202164
0.0636759
0.0450389
0.0602117
0.0816164
0.108608
0.132687
0.15205
0.165628
0.174043
0.182598
0.00749427
-0.00258131
0.0152491
0.0407754
0.0714017
0.0993076
0.122319
0.139299
0.150444
0.162449
-0.0474895
-0.049149
-0.0288105
0.000599452
0.0346185
0.0661464
0.0926518
0.112943
0.12684
0.141942
-0.101094
-0.0943965
-0.0717584
-0.0387214
-0.00157145
0.0333498
0.0631741
0.0866606
0.103291
0.121219
-0.153005
-0.138193
-0.113406
-0.0770084
-0.0370056
0.00105988
0.0340085
0.0605537
0.0798733
0.100399
-0.203026
-0.180349
-0.153571
-0.114098
-0.0715296
-0.0305868
0.00527291
0.0347217
0.0566647
0.0795854
-0.250973
-0.220696
-0.192097
-0.149833
-0.104999
-0.0614601
-0.0229194
0.0092592
0.0337382
0.0588692
-0.296674
-0.259092
-0.228842
-0.184076
-0.137279
-0.0914378
-0.050461
-0.0157426
0.0111646
0.0383283
-0.33998
-0.295422
-0.263683
-0.216704
-0.168246
-0.120405
-0.0772502
-0.0401964
-0.0109902
0.0180342
-0.380761
-0.329587
-0.296519
-0.247609
-0.197792
-0.148257
-0.103192
-0.0640211
-0.0326784
-0.00193525
-0.418914
-0.361511
-0.327265
-0.276703
-0.225819
-0.174898
-0.128198
-0.0871549
-0.0538481
-0.0215026
-0.454361
-0.391139
-0.35586
-0.303912
-0.252247
-0.200244
-0.152188
-0.109508
-0.0742288
-0.0408157
-0.487046
-0.418436
-0.382262
-0.329185
-0.277007
-0.224221
-0.17509
-0.131029
-0.0940184
-0.0596205
-0.516935
-0.443386
-0.406447
-0.352483
-0.300048
-0.246767
-0.196841
-0.151657
-0.113127
-0.0778668
-0.544007
-0.465985
-0.428407
-0.373787
-0.321332
-0.267833
-0.217384
-0.171333
-0.131472
-0.0955554
-0.568271
-0.486247
-0.448151
-0.393092
-0.340835
-0.287378
-0.236673
-0.19001
-0.149009
-0.112662
-0.589898
-0.504302
-0.465769
-0.41045
-0.358574
-0.305391
-0.254678
-0.207654
-0.165703
-0.129157
-0.609234
-0.520419
-0.481458
-0.425996
-0.374625
-0.321902
-0.271396
-0.224244
-0.181526
-0.145017
-0.625431
-0.534088
-0.494898
-0.43953
-0.388858
-0.336822
-0.286762
-0.239732
-0.196441
-0.160226
-0.63889
-0.5456
-0.506302
-0.451198
-0.401363
-0.350191
-0.300782
-0.254107
-0.210426
-0.174771
-0.649854
-0.555141
-0.515819
-0.461114
-0.412214
-0.362049
-0.313466
-0.267359
-0.223465
-0.188647
-0.658432
-0.562804
-0.523544
-0.46936
-0.421474
-0.372433
-0.324828
-0.279484
-0.235543
-0.201853
-0.664735
-0.568688
-0.529576
-0.476025
-0.429215
-0.38139
-0.334888
-0.290487
-0.246657
-0.214396
-0.668888
-0.572903
-0.534025
-0.481211
-0.435519
-0.388977
-0.34368
-0.300378
-0.256805
-0.226282
-0.67103
-0.575567
-0.537007
-0.485024
-0.440478
-0.395262
-0.351244
-0.309172
-0.265994
-0.23752
-0.671298
-0.576798
-0.538642
-0.487574
-0.444187
-0.400319
-0.357628
-0.316891
-0.274236
-0.248115
-0.669832
-0.576715
-0.539046
-0.488973
-0.446747
-0.40423
-0.362889
-0.32356
-0.281548
-0.258065
-0.666774
-0.575435
-0.538336
-0.489331
-0.448261
-0.407078
-0.367089
-0.329208
-0.287956
-0.267349
-0.662264
-0.573074
-0.536627
-0.488759
-0.448832
-0.408952
-0.370293
-0.333866
-0.293487
-0.275923
-0.656442
-0.569744
-0.534031
-0.487363
-0.448562
-0.409943
-0.372575
-0.337563
-0.298179
-0.283707
-0.649443
-0.565555
-0.530653
-0.485245
-0.447552
-0.410141
-0.374009
-0.34033
-0.302074
-0.290565
-0.641401
-0.56061
-0.526596
-0.482505
-0.445898
-0.409636
-0.374672
-0.342198
-0.305222
-0.29628
-0.632448
-0.55501
-0.521955
-0.479232
-0.443693
-0.408518
-0.374645
-0.343196
-0.30768
-0.300519
-0.622709
-0.54885
-0.51682
-0.475514
-0.441022
-0.406872
-0.374006
-0.343358
-0.309536
-0.302841
-0.612303
-0.542217
-0.511272
-0.471425
-0.437963
-0.404778
-0.37283
-0.34272
-0.310969
-0.302844
-0.601349
-0.535195
-0.505388
-0.467038
-0.434591
-0.402313
-0.371186
-0.341305
-0.31202
-0.299558
-0.589999
-0.527904
-0.499274
-0.462446
-0.430995
-0.39957
-0.369156
-0.339148
-0.311812
-0.286489
-0.578437
-0.520501
-0.493071
-0.457772
-0.427292
-0.396669
-0.366887
-0.33653
-0.309697
-0.248482
-0.566527
-0.51283
-0.486642
-0.452906
-0.423405
-0.393583
-0.364447
-0.333841
-0.309371
-0.236968
-0.554467
-0.505054
-0.480127
-0.447964
-0.419438
-0.390417
-0.361975
-0.331427
-0.309763
-0.237022
-0.542396
-0.497272
-0.473612
-0.443017
-0.415458
-0.387234
-0.35951
-0.329282
-0.309563
-0.238729
-0.530414
-0.489548
-0.467148
-0.438106
-0.411499
-0.384067
-0.357054
-0.327324
-0.308763
-0.240603
-0.518613
-0.481939
-0.460784
-0.433269
-0.407595
-0.380944
-0.354616
-0.325512
-0.307627
-0.242884
-0.507089
-0.474508
-0.454569
-0.428542
-0.403776
-0.37789
-0.352218
-0.323822
-0.306277
-0.245494
-0.495934
-0.467313
-0.448552
-0.423962
-0.400073
-0.374929
-0.349878
-0.322237
-0.304779
-0.248235
-0.485237
-0.460414
-0.44278
-0.419565
-0.396514
-0.372084
-0.347618
-0.320746
-0.303193
-0.250977
-0.475083
-0.453863
-0.437299
-0.415386
-0.393126
-0.369375
-0.345456
-0.319344
-0.30158
-0.253651
-0.465554
-0.447715
-0.432151
-0.411456
-0.389937
-0.366823
-0.343413
-0.318033
-0.299989
-0.256204
-0.456731
-0.442019
-0.427379
-0.407809
-0.386974
-0.36445
-0.341507
-0.316816
-0.298462
-0.258597
-0.448686
-0.436822
-0.423024
-0.404476
-0.384261
-0.362275
-0.339758
-0.3157
-0.297032
-0.260796
-0.441474
-0.432179
-0.419122
-0.401486
-0.381825
-0.36032
-0.338181
-0.314693
-0.295729
-0.262772
-0.435172
-0.428117
-0.415708
-0.398866
-0.379687
-0.358603
-0.336794
-0.313804
-0.294574
-0.264504
-0.429835
-0.424672
-0.412812
-0.396642
-0.37787
-0.357141
-0.335613
-0.313044
-0.293586
-0.265974
-0.425507
-0.421878
-0.410462
-0.394835
-0.376392
-0.355951
-0.33465
-0.312422
-0.292779
-0.267165
-0.422225
-0.419759
-0.408679
-0.393463
-0.375268
-0.355045
-0.333917
-0.311946
-0.292165
-0.268067
-0.42002
-0.418336
-0.407481
-0.392539
-0.374512
-0.354435
-0.333423
-0.311624
-0.291752
-0.268673
-0.418913
-0.417621
-0.406879
-0.392076
-0.374131
-0.354128
-0.333174
-0.311462
-0.291543
-0.268976
-0.257854
-0.248089
-0.237674
-0.227099
-0.21625
-0.205168
-0.193919
-0.182551
-0.171111
-0.159648
-0.14821
-0.136842
-0.125594
-0.11451
-0.103639
-0.093029
-0.082728
-0.0727863
-0.0632547
-0.0541844
-0.0456262
-0.0376295
-0.0302404
-0.0235005
-0.0174441
-0.0120965
-0.00747161
-0.00356997
-0.000377377
0.00213596
0.00401517
0.00531945
0.00611943
0.00649392
0.00652508
0.00629498
0.00587898
0.00534714
0.00475165
0.0041462
0.00354602
0.00300615
0.00247712
0.00207921
0.00160386
0.00142336
0.000864832
0.00109576
6.43738e-05
0.00129532
-0.258545
-0.248651
-0.238106
-0.227494
-0.216615
-0.205507
-0.194241
-0.182861
-0.171412
-0.159942
-0.148498
-0.137126
-0.125874
-0.114786
-0.10391
-0.0932939
-0.0829862
-0.0730367
-0.0634962
-0.0544157
-0.0458462
-0.0378371
-0.0304348
-0.0236808
-0.0176098
-0.0122473
-0.00760737
-0.00369092
-0.000483957
0.00204308
0.00393512
0.00525119
0.00606183
0.00644578
0.00648521
0.00626224
0.0058523
0.00532556
0.00473433
0.00413238
0.00353509
0.00299755
0.00247043
0.00207399
0.00159993
0.00142019
0.000862823
0.00109353
6.41493e-05
0.00129242
-0.259914
-0.249764
-0.238964
-0.228276
-0.217338
-0.20618
-0.194879
-0.183474
-0.172007
-0.160523
-0.149069
-0.137689
-0.126428
-0.115331
-0.104446
-0.093819
-0.0834983
-0.0735335
-0.0639752
-0.0548747
-0.0462829
-0.0382494
-0.0308209
-0.0240391
-0.0179392
-0.0125471
-0.00787752
-0.00393169
-0.000696194
0.00185806
0.00377559
0.00511512
0.00594695
0.00634974
0.00640565
0.00619689
0.00579905
0.00528249
0.00469973
0.0041048
0.00351325
0.00298038
0.00245706
0.00206356
0.00159208
0.00141387
0.000858812
0.00108907
6.37e-05
0.00128662
-0.261932
-0.251411
-0.240232
-0.229433
-0.218406
-0.207173
-0.19582
-0.184377
-0.172883
-0.16138
-0.149911
-0.138518
-0.127246
-0.116137
-0.105238
-0.0945951
-0.0842554
-0.0742684
-0.0646844
-0.0555546
-0.0469302
-0.0388608
-0.0313936
-0.024571
-0.0184285
-0.0129928
-0.00827929
-0.00429
-0.00101225
0.00158235
0.00353771
0.00491208
0.00577544
0.00620627
0.00628673
0.00609917
0.00571938
0.00521803
0.00464796
0.00406351
0.00348056
0.00295467
0.00243705
0.00204796
0.00158035
0.00140441
0.000852812
0.0010824
6.3029e-05
0.00127797
-0.26456
-0.253564
-0.24189
-0.230943
-0.219798
-0.208466
-0.197044
-0.185553
-0.174024
-0.162496
-0.151007
-0.139599
-0.128312
-0.117189
-0.106273
-0.0956092
-0.0852454
-0.0752299
-0.0656129
-0.0564454
-0.0477788
-0.0396631
-0.0321459
-0.0252701
-0.0190722
-0.0135796
-0.00880871
-0.00476257
-0.00142948
0.00121805
0.00322311
0.00464331
0.00554821
0.00601605
0.00612895
0.00596943
0.00561355
0.00513238
0.00457914
0.00400863
0.00343711
0.0029205
0.00241045
0.00202722
0.00156476
0.00139184
0.000844842
0.00107354
6.21398e-05
0.0012665
-0.267742
-0.256185
-0.243907
-0.23278
-0.221489
-0.210034
-0.198527
-0.186977
-0.175406
-0.163847
-0.152337
-0.140911
-0.129608
-0.118467
-0.107531
-0.0968445
-0.0864525
-0.0764034
-0.0667471
-0.0575346
-0.0488174
-0.0406459
-0.0330682
-0.0261282
-0.0198631
-0.0143014
-0.00946065
-0.00534518
-0.00194445
0.000767878
0.00283391
0.00431045
0.00526648
0.00577996
0.00593295
0.00580813
0.0054819
0.00502576
0.00449345
0.00394027
0.00338298
0.00287793
0.00237732
0.00200139
0.00154536
0.00137619
0.000834928
0.00106252
6.10368e-05
0.00125228
-0.271408
-0.259225
-0.246249
-0.234911
-0.223447
-0.211847
-0.200241
-0.188621
-0.177002
-0.16541
-0.153875
-0.14243
-0.13111
-0.119951
-0.108994
-0.0982815
-0.0878582
-0.0777715
-0.0680708
-0.0588072
-0.0500322
-0.0417968
-0.0341497
-0.0271355
-0.0207927
-0.0151509
-0.010229
-0.00603275
-0.00255304
0.000235131
0.00237268
0.00391544
0.00493172
0.00549909
0.00569951
0.00561584
0.00532483
0.00489849
0.00439111
0.00385861
0.00331832
0.00282708
0.00233775
0.00197054
0.0015222
0.0013575
0.000823102
0.00104938
5.97254e-05
0.00123538
-0.275476
-0.262626
-0.24887
-0.237294
-0.225635
-0.213869
-0.202151
-0.190455
-0.178782
-0.167154
-0.155595
-0.144131
-0.132793
-0.121616
-0.110638
-0.0998984
-0.0894418
-0.0793147
-0.0695659
-0.0602465
-0.051408
-0.043102
-0.0353778
-0.0282811
-0.0218514
-0.0161198
-0.0111068
-0.00681947
-0.0032505
-0.000376409
0.00184238
0.00346057
0.00454565
0.00517471
0.00542957
0.00539323
0.00514282
0.00475091
0.00427239
0.00376385
0.00324328
0.00276806
0.00229183
0.00193475
0.00149535
0.00133581
0.000809401
0.00103414
5.82119e-05
0.00121589
-0.279852
-0.266315
-0.251718
-0.239883
-0.228008
-0.216062
-0.204221
-0.192442
-0.180713
-0.169049
-0.157465
-0.145984
-0.13463
-0.123437
-0.112437
-0.101672
-0.0911812
-0.0810122
-0.071213
-0.0618344
-0.0529282
-0.0445464
-0.0367391
-0.029553
-0.0230288
-0.0171992
-0.0120862
-0.00769894
-0.00403162
-0.00106254
0.00124631
0.00294837
0.00411017
0.00480823
0.00512415
0.00514105
0.00493642
0.00458341
0.00413756
0.0036562
0.00315802
0.00270101
0.00223968
0.0018941
0.00146488
0.00131119
0.000793868
0.00101687
5.6503e-05
0.00119391
-0.284424
-0.270207
-0.254731
-0.242624
-0.230519
-0.21838
-0.206411
-0.194546
-0.182762
-0.171062
-0.159457
-0.14796
-0.136594
-0.125386
-0.114368
-0.103577
-0.0930533
-0.0828423
-0.0729917
-0.063552
-0.0545754
-0.0461141
-0.0382192
-0.0309384
-0.0243137
-0.0183794
-0.0131592
-0.00866429
-0.00489073
-0.00181871
0.000588074
0.00238163
0.0036274
0.00440123
0.0047844
0.00486012
0.00470622
0.00439643
0.00398697
0.00353592
0.00306275
0.00262608
0.00218143
0.0018487
0.00143086
0.00128378
0.000776551
0.000997608
5.46062e-05
0.00116955
-0.289072
-0.274205
-0.257839
-0.245456
-0.233113
-0.220778
-0.20868
-0.19673
-0.184892
-0.173161
-0.161538
-0.150031
-0.138656
-0.127437
-0.116404
-0.10559
-0.0950351
-0.0847832
-0.0748815
-0.0653804
-0.056332
-0.0477892
-0.0398037
-0.0324243
-0.0256946
-0.0196503
-0.0143172
-0.00970833
-0.00582189
-0.0026401
-0.000128502
0.00176333
0.00309962
0.0039554
0.00441158
0.00455137
0.00445289
0.00419046
0.00382097
0.00340328
0.00295768
0.00254346
0.00211721
0.00179865
0.0013934
0.00125349
0.000757499
0.000976421
5.25293e-05
0.00114293
-0.293657
-0.278192
-0.26096
-0.24831
-0.235732
-0.223206
-0.210983
-0.198955
-0.18707
-0.175314
-0.163679
-0.152167
-0.140789
-0.129564
-0.118519
-0.107687
-0.0971038
-0.0868135
-0.0768624
-0.0673007
-0.0581807
-0.0495556
-0.041478
-0.0339978
-0.0271599
-0.0210019
-0.0155515
-0.0108236
-0.00681895
-0.00352169
-0.000899405
0.0010966
0.00252922
0.00347255
0.00400702
0.00421576
0.00417715
0.00396602
0.00363995
0.00325858
0.00284305
0.00245332
0.00204718
0.00174408
0.00135258
0.00122047
0.000736767
0.000953368
5.02806e-05
0.00111418
-0.298029
-0.282037
-0.264004
-0.251109
-0.238312
-0.225612
-0.213279
-0.201183
-0.189262
-0.17749
-0.165852
-0.154342
-0.142967
-0.131743
-0.120692
-0.109845
-0.0992381
-0.0889127
-0.0789151
-0.0692949
-0.0601045
-0.0513978
-0.043228
-0.035646
-0.0286983
-0.0224243
-0.0168534
-0.012003
-0.00787585
-0.00445855
-0.00172073
0.000384479
0.00191849
0.00295436
0.00357192
0.00385414
0.00387957
0.00372353
0.00344421
0.00310205
0.00271903
0.00235581
0.00197146
0.00168509
0.0013085
0.00118483
0.000714418
0.000928512
4.78675e-05
0.00108344
-0.302024
-0.285595
-0.266872
-0.25377
-0.240785
-0.227942
-0.215523
-0.203378
-0.191435
-0.179661
-0.16803
-0.156531
-0.145167
-0.13395
-0.122899
-0.112044
-0.101418
-0.0910617
-0.0810212
-0.0713457
-0.0620876
-0.0533011
-0.0450402
-0.0373569
-0.0302991
-0.0239078
-0.0182148
-0.0132394
-0.00898688
-0.00544607
-0.00258884
-0.000370261
0.00126948
0.00240231
0.00310732
0.00346722
0.00356065
0.00346331
0.00323399
0.00293386
0.00258579
0.00225107
0.00189018
0.00162179
0.00126126
0.00114663
0.000690505
0.000901921
4.5294e-05
0.00105085
-0.305464
-0.288693
-0.269447
-0.256189
-0.243067
-0.230133
-0.217664
-0.205498
-0.193556
-0.181794
-0.170183
-0.158707
-0.147364
-0.136162
-0.125119
-0.114262
-0.103623
-0.0932415
-0.0831631
-0.0734365
-0.0641143
-0.055251
-0.0469012
-0.0391181
-0.031951
-0.0254426
-0.0196267
-0.0145251
-0.0101451
-0.00647827
-0.00349861
-0.00116328
0.000585857
0.00181943
0.00261572
0.00305706
0.00322205
0.00318673
0.00301039
0.0027549
0.00244401
0.00213964
0.00180375
0.00155448
0.00121107
0.00110604
0.000665134
0.0008737
4.2569e-05
0.00101657
-0.308077
-0.291064
-0.271561
-0.258237
-0.245066
-0.23212
-0.219654
-0.207505
-0.195591
-0.183864
-0.17229
-0.16085
-0.149538
-0.138361
-0.127334
-0.116482
-0.105837
-0.0954365
-0.0853254
-0.0755524
-0.0661699
-0.0572329
-0.0487967
-0.0409156
-0.0336403
-0.0270153
-0.0210763
-0.0158475
-0.0113388
-0.007544
-0.00443966
-0.00198503
-0.000123768
0.0012134
0.00210384
0.0026294
0.00286861
0.00289775
0.0027766
0.00256769
0.00229564
0.00202297
0.00171324
0.00148395
0.00115849
0.00106341
0.000638551
0.00084403
3.974e-05
0.00098077
-0.309433
-0.292455
-0.273142
-0.259879
-0.246775
-0.233916
-0.221513
-0.209422
-0.197564
-0.185892
-0.174369
-0.162975
-0.151703
-0.140557
-0.129552
-0.11871
-0.108062
-0.0976465
-0.0875058
-0.077689
-0.0682487
-0.05924
-0.0507191
-0.0427413
-0.0353586
-0.0286174
-0.0225556
-0.0171994
-0.0125615
-0.00863804
-0.00540797
-0.00283269
-0.000857691
0.000584925
0.00157157
0.00218356
0.00249928
0.00259517
0.00253142
0.00237112
0.00213974
0.00190033
0.00161812
0.0014098
0.00110325
0.00101859
0.000610674
0.000812868
3.68369e-05
0.000943561
-0.309761
-0.293126
-0.27437
-0.261192
-0.248243
-0.235562
-0.22328
-0.211284
-0.199507
-0.187903
-0.17644
-0.165098
-0.15387
-0.142758
-0.131778
-0.120949
-0.110302
-0.0998744
-0.0897085
-0.0798528
-0.0703599
-0.0612852
-0.0526854
-0.0446169
-0.0371329
-0.0302813
-0.024102
-0.0186233
-0.0138601
-0.00981067
-0.00645624
-0.00376012
-0.00166947
-0.000117777
0.000970276
0.00167524
0.00207492
0.0022455
0.0022471
0.00214293
0.00195904
0.00175876
0.00150896
0.00132543
0.00104093
0.000968731
0.000579784
0.00077926
3.34387e-05
0.000904865
-0.309814
-0.292239
-0.274296
-0.261256
-0.24867
-0.236383
-0.224384
-0.212603
-0.200996
-0.18953
-0.178181
-0.166936
-0.155791
-0.144749
-0.133825
-0.12304
-0.112424
-0.102013
-0.0918496
-0.0819819
-0.0724625
-0.0633468
-0.0546921
-0.0465552
-0.0389906
-0.0320474
-0.0257667
-0.020179
-0.0153007
-0.0111321
-0.00765635
-0.00483851
-0.0026275
-0.000958492
0.00024223
0.00105368
0.00155227
0.00181292
0.00189487
0.00186075
0.00173666
0.00158589
0.00137702
0.00122487
0.000967576
0.000911369
0.000544365
0.000742529
2.90123e-05
0.000864946
-0.299688
-0.284223
-0.270417
-0.258299
-0.246715
-0.235276
-0.223885
-0.212576
-0.201345
-0.190183
-0.179088
-0.168056
-0.157091
-0.146203
-0.135406
-0.124726
-0.114191
-0.103839
-0.093713
-0.083861
-0.0743359
-0.0651938
-0.0564928
-0.0482909
-0.0406441
-0.0336035
-0.0272128
-0.0215051
-0.0165003
-0.0122021
-0.00859686
-0.00565318
-0.00332289
-0.00154359
-0.000243364
0.000655777
0.0012299
0.00155428
0.00168897
0.0016977
0.00160815
0.00148447
0.00129768
0.00116152
0.000919561
0.000870352
0.000518707
0.000711465
2.61059e-05
0.000826436
-0.256826
-0.275165
-0.270195
-0.258865
-0.247899
-0.236808
-0.225612
-0.214443
-0.203316
-0.192232
-0.181192
-0.170195
-0.159246
-0.148353
-0.137532
-0.126805
-0.116202
-0.10576
-0.0955206
-0.0855323
-0.0758486
-0.0665271
-0.0576276
-0.0492113
-0.0413377
-0.0340632
-0.0274373
-0.0215001
-0.0162792
-0.0117868
-0.00801716
-0.00494579
-0.00252945
-0.000707788
0.000592351
0.00145351
0.00195916
0.00219376
0.00222736
0.00213271
0.00194547
0.00173444
0.00147498
0.00127915
0.000994517
0.000909368
0.000541602
0.000708949
3.39792e-05
0.000795517
-0.242032
-0.264346
-0.263118
-0.253319
-0.243635
-0.23347
-0.222947
-0.21231
-0.201621
-0.190908
-0.180187
-0.169472
-0.158772
-0.148102
-0.13748
-0.126931
-0.116486
-0.10618
-0.0960572
-0.0861656
-0.0765587
-0.0672939
-0.0584314
-0.0500325
-0.0421577
-0.0348642
-0.0282032
-0.0222171
-0.0169359
-0.0123749
-0.00853198
-0.00538601
-0.00289719
-0.00100819
0.00035188
0.00126409
0.00181146
0.00207871
0.00213706
0.00206037
0.00188649
0.0016845
0.00143312
0.00124153
0.000964554
0.000879209
0.000523797
0.000681318
3.39684e-05
0.00075976
-0.236833
-0.254757
-0.25452
-0.246018
-0.237496
-0.2283
-0.218543
-0.208534
-0.198375
-0.188118
-0.177801
-0.167446
-0.157074
-0.146704
-0.13636
-0.126067
-0.115859
-0.105774
-0.0958532
-0.0861463
-0.0767061
-0.0675896
-0.0588564
-0.0505675
-0.0427827
-0.0355591
-0.0289479
-0.0229915
-0.017721
-0.0131525
-0.00928557
-0.00610128
-0.00356237
-0.00161448
-0.000189843
0.000789424
0.00140348
0.00173438
0.00185166
0.00182736
0.00169957
0.00153568
0.00131757
0.00115019
0.000897649
0.00082325
0.000490994
0.000642459
3.1686e-05
0.000719112
-0.23286
-0.246204
-0.246429
-0.238978
-0.231349
-0.223003
-0.213975
-0.204583
-0.194958
-0.185169
-0.175266
-0.165284
-0.15525
-0.145191
-0.135132
-0.125104
-0.115141
-0.105281
-0.0955667
-0.086048
-0.0767774
-0.0678114
-0.0592094
-0.0510317
-0.0433381
-0.0361854
-0.0296248
-0.0236994
-0.0184409
-0.0138669
-0.0099787
-0.00675957
-0.00417491
-0.00217322
-0.000689721
0.000350501
0.00102504
0.00141355
0.00158419
0.00160735
0.00152155
0.00139242
0.0012052
0.00106008
0.000831067
0.000766456
0.000457738
0.000601845
2.97374e-05
0.00067562
-0.228792
-0.238098
-0.238509
-0.231964
-0.225074
-0.217495
-0.209172
-0.200401
-0.191325
-0.182024
-0.172559
-0.162971
-0.153297
-0.143567
-0.133811
-0.124062
-0.114355
-0.104731
-0.0952334
-0.0859105
-0.0768156
-0.0680049
-0.0595374
-0.0514733
-0.043872
-0.0367904
-0.0302801
-0.0243847
-0.0191371
-0.0145565
-0.0106461
-0.00739163
-0.00476136
-0.00270677
-0.00116607
-6.72335e-05
0.000664931
0.00110791
0.0013287
0.00139625
0.00134975
0.00125304
0.00109497
0.00097066
0.00076446
0.000708739
0.000423847
0.000559552
2.7882e-05
0.000629333
-0.224159
-0.230162
-0.23047
-0.224717
-0.218481
-0.211609
-0.203976
-0.195834
-0.187327
-0.178541
-0.16954
-0.160377
-0.15109
-0.141715
-0.132287
-0.12284
-0.113413
-0.104045
-0.0947815
-0.085672
-0.0767689
-0.0681283
-0.0598091
-0.0518709
-0.0443731
-0.0373726
-0.0309213
-0.0250634
-0.019833
-0.0152507
-0.011322
-0.0080351
-0.00536111
-0.00325467
-0.00165711
-0.00049941
0.000291072
0.000789507
0.00106166
0.00117489
0.00116902
0.00110599
0.000978326
0.000875822