/*--------------------------------*- C++ -*----------------------------------*\
  =========                 |
  \\      /  F ield         | OpenFOAM: The Open Source CFD Toolbox
   \\    /   O peration     | Website:  https://openfoam.org
    \\  /    A nd           | Version:  7
     \\/     M anipulation  |
\*---------------------------------------------------------------------------*/
FoamFile
{
    version     2.0;
    format      ascii;
    class       surfaceScalarField;
    location    "5";
    object      phi;
}
// * * * * * * * * * * * * * * * * * * * * * * * * * * * * * * * * * * * * * //

dimensions      [0 3 -1 0 0 0 0];

internalField   nonuniform List<scalar> 
20715
(
-6.41478e-06
6.41479e-06
-1.15149e-11
-1.03587e-05
3.944e-06
-5.14839e-11
-4.02795e-06
-6.3307e-06
-7.78752e-11
1.93547e-05
-2.33826e-05
-8.67725e-11
6.51338e-05
-4.5779e-05
-8.1682e-11
0.00013817
-7.30365e-05
-7.08724e-11
0.00024267
-0.000104499
-5.77219e-11
0.000381898
-0.000139228
-4.79273e-11
0.000556029
-0.000174131
-3.88432e-11
-0.000209723
-2.91817e-11
0.000765752
-6.15193e-06
1.25667e-05
-9.43644e-06
7.22851e-06
-2.05489e-06
-1.37122e-05
2.27869e-05
-4.82244e-05
7.04785e-05
-9.34706e-05
0.000145946
-0.000148504
0.00025349
-0.000212043
0.000396498
-0.000282236
0.000575287
-0.00035292
-0.000425062
0.000790626
-5.62994e-06
1.81967e-05
-7.60127e-06
9.19983e-06
1.87269e-06
-2.31862e-05
2.96196e-05
-7.59713e-05
8.11158e-05
-0.000144967
0.000161416
-0.000228805
0.000275002
-0.000325628
0.000425506
-0.00043274
0.000613521
-0.000540935
-0.000651505
0.000839964
-4.85452e-06
2.30512e-05
-4.87214e-06
9.21745e-06
7.71403e-06
-3.57724e-05
3.97813e-05
-0.000108039
9.69297e-05
-0.000202115
0.000184399
-0.000316274
0.000306933
-0.000448162
0.000468512
-0.00059432
0.000670145
-0.000742568
-0.000894291
0.000912931
-3.83405e-06
2.68852e-05
-1.27612e-06
6.65951e-06
1.54109e-05
-5.24594e-05
5.31669e-05
-0.000145794
0.000117749
-0.000266697
0.000214628
-0.000413154
0.000348879
-0.000582412
0.000524918
-0.00077036
0.000744295
-0.000961944
-0.00115829
0.0010083
-2.57946e-06
2.94647e-05
3.14817e-06
9.31878e-07
2.48861e-05
-7.41973e-05
6.96394e-05
-0.000190548
0.00014335
-0.000340408
0.000251758
-0.000521562
0.000400315
-0.000730969
0.000593941
-0.000963987
0.000834843
-0.00120285
-0.0014479
0.00112446
-1.10048e-06
3.05652e-05
8.36107e-06
-8.52967e-06
3.60467e-05
-0.000101883
8.90329e-05
-0.000243534
0.000173463
-0.000424838
0.000295367
-0.000643466
0.000460605
-0.000896207
0.000674633
-0.00117801
0.000940421
-0.00146863
-0.00176694
0.00125946
5.96629e-07
2.99686e-05
1.43117e-05
-2.22448e-05
4.87853e-05
-0.000136357
0.000111155
-0.000305904
0.000207775
-0.000521458
0.00034497
-0.000780661
0.000529014
-0.00108025
0.000765897
-0.0014149
0.00105944
-0.00176218
-0.00211856
0.00141106
2.46574e-06
2.75028e-05
2.09438e-05
-4.07228e-05
6.29821e-05
-0.000178395
0.000135792
-0.000378714
0.000245934
-0.0006316
0.000400021
-0.000934747
0.000604718
-0.00128495
0.000866507
-0.00167669
0.00119013
-0.00208581
-0.00250515
0.00157673
4.51691e-06
2.29859e-05
2.81986e-05
-6.44045e-05
7.85065e-05
-0.000228703
0.000162706
-0.000462914
0.000287556
-0.000756449
0.000459924
-0.00110712
0.00068682
-0.00151184
0.00097513
-0.001965
0.00133056
-0.00244124
-0.00292829
0.0017537
6.72602e-06
1.62599e-05
3.60129e-05
-9.36914e-05
9.52193e-05
-0.000287909
0.000191647
-0.000559342
0.000332226
-0.000897028
0.000524041
-0.00129893
0.000774363
-0.00176217
0.00109035
-0.00228098
0.00147868
-0.00282957
-0.00338866
0.00193905
9.07447e-06
7.18542e-06
4.43208e-05
-0.000128938
0.000112974
-0.000356562
0.000222347
-0.000668715
0.000379508
-0.00105419
0.000591695
-0.00151112
0.000866337
-0.00203681
0.00121068
-0.00262533
0.00163234
-0.00325123
-0.00388601
0.00212969
1.15439e-05
-4.35848e-06
5.30544e-05
-0.000170448
0.000131617
-0.000435124
0.000254525
-0.000791622
0.000428939
-0.0012286
0.000662175
-0.00174435
0.000961695
-0.00233633
0.00133461
-0.00299825
0.00178936
-0.00370598
-0.00441912
0.00232247
1.4116e-05
-1.84745e-05
6.21444e-05
-0.000218477
0.000150991
-0.000523971
0.000287889
-0.00092852
0.000480037
-0.00142075
0.000734744
-0.00199906
0.00105935
-0.00266094
0.00146061
-0.0033995
0.00194755
-0.00419292
-0.00498575
0.00251419
1.67727e-05
-3.52472e-05
7.15206e-05
-0.000273225
0.000170935
-0.000623385
0.000322139
-0.00107972
0.000532302
-0.00163092
0.000808631
-0.00227539
0.0011582
-0.00301051
0.00158714
-0.00382844
0.00210477
-0.00471056
-0.00558271
0.00270173
1.94963e-05
-5.47435e-05
8.11122e-05
-0.00033484
0.000191282
-0.000733555
0.000356961
-0.0012454
0.000585213
-0.00185917
0.000883039
-0.00257321
0.00125709
-0.00338456
0.0017127
-0.00428405
0.00225897
-0.00525682
-0.00620588
0.00288215
2.22691e-05
-7.70126e-05
9.08476e-05
-0.000403419
0.000211863
-0.000854571
0.000392035
-0.00142557
0.000638227
-0.00210536
0.000957133
-0.00289212
0.00135486
-0.00378229
0.00183582
-0.00476501
0.00240821
-0.00582922
-0.00685058
0.00305291
2.50738e-05
-0.000102086
0.000100655
-0.000479
0.000232507
-0.000986422
0.000427029
-0.0016201
0.000690786
-0.00236912
0.00103005
-0.00323138
0.00145028
-0.00420252
0.00195508
-0.00526982
0.00255061
-0.00642475
-0.00751218
0.00321221
2.78929e-05
-0.000129979
0.000110461
-0.000561568
0.000253038
-0.001129
0.000461607
-0.00182867
0.000742306
-0.00264981
0.00110086
-0.00358994
0.0015421
-0.00464376
0.00206925
-0.00579697
0.0026849
-0.0070404
-0.00818841
0.00336113
3.07087e-05
-0.000160688
0.000120193
-0.000651053
0.000273279
-0.00128208
0.000495423
-0.00205081
0.00079219
-0.00294658
0.00116861
-0.00396636
0.00162886
-0.00510401
0.00217669
-0.00634479
0.00281381
-0.00767751
-0.00887905
0.00350445
3.32753e-05
-0.000193963
0.000129283
-0.00074706
0.000292283
-0.00144509
0.000527095
-0.00228562
0.000838546
-0.00325803
0.00123076
-0.00435857
0.00170701
-0.00558026
0.0022713
-0.00690909
0.00293617
-0.00834239
-0.00975897
0.00381609
3.59981e-05
-0.000229961
0.000138582
-0.000849644
0.000311323
-0.00161783
0.000558238
-0.00253254
0.000883213
-0.00358301
0.00128916
-0.00476451
0.00177788
-0.00606899
0.00235199
-0.00748319
0.00301816
-0.00900856
-0.0105742
0.00383337
3.86633e-05
-0.000268625
0.000147584
-0.000958565
0.000329537
-0.00179978
0.000587592
-0.00279059
0.000924482
-0.0039199
0.0013416
-0.00518163
0.00183874
-0.00656613
0.00241544
-0.00805989
0.00306898
-0.0096621
-0.011333
0.00382785
4.12525e-05
-0.000309877
0.000156216
-0.00107353
0.000346758
-0.00199032
0.000614844
-0.00305868
0.000961856
-0.00426691
0.00138742
-0.00560719
0.00188894
-0.00706765
0.0024624
-0.00863335
0.00309805
-0.0102978
-0.0120398
0.00380477
4.37475e-05
-0.000353625
0.000164406
-0.00119419
0.000362818
-0.00218873
0.000639696
-0.00333556
0.000994889
-0.0046221
0.00142606
-0.00603836
0.0019281
-0.00756969
0.00249352
-0.00919877
0.00310787
-0.0109121
-0.012699
0.00376712
4.61303e-05
-0.000399755
0.000172082
-0.00132014
0.000377558
-0.00239421
0.00066187
-0.00361987
0.00102318
-0.00498341
0.00145707
-0.00647225
0.00195593
-0.00806854
0.00250918
-0.00975202
0.00309939
-0.0115023
-0.0133142
0.0037146
4.83825e-05
-0.000448138
0.000179173
-0.00145093
0.00039082
-0.00260586
0.000681103
-0.00391015
0.00104637
-0.00534868
0.00148007
-0.00690595
0.0019722
-0.00856067
0.00250959
-0.0102894
0.00307315
-0.0120659
-0.0138875
0.00364645
5.04855e-05
-0.000498623
0.000185609
-0.00158605
0.000402456
-0.0028227
0.000697154
-0.00420485
0.00106416
-0.00571569
0.00149476
-0.00733656
0.00197678
-0.0090427
0.00249497
-0.0108076
0.00302959
-0.0126005
-0.01442
0.00356207
5.24202e-05
-0.000551043
0.000191321
-0.00172495
0.000412321
-0.0030437
0.000709798
-0.00450233
0.00107625
-0.00608214
0.0015009
-0.0077612
0.0019696
-0.0095114
0.00246556
-0.0113036
0.00296911
-0.013104
-0.0149121
0.00346121
5.41672e-05
-0.00060521
0.000196241
-0.00186703
0.00042028
-0.00326774
0.000718835
-0.00480088
0.00108244
-0.00644574
0.00149832
-0.00817708
0.00195068
-0.00996376
0.00242167
-0.0117746
0.00289224
-0.0135746
-0.0153639
0.00334401
5.57071e-05
-0.000660918
0.000200301
-0.00201162
0.000426205
-0.00349365
0.000724089
-0.00509877
0.00108253
-0.00680419
0.00148693
-0.00858148
0.00192013
-0.010397
0.00236371
-0.0122181
0.00279962
-0.0140105
-0.0157752
0.00321095
5.70203e-05
-0.000717938
0.000203441
-0.00215804
0.000429981
-0.00372019
0.000725409
-0.00539419
0.00107641
-0.00715519
0.00146673
-0.0089718
0.00187818
-0.0108084
0.0022922
-0.0126322
0.00269206
-0.0144104
-0.0161459
0.00306281
5.80876e-05
-0.000776025
0.000205598
-0.00230555
0.000431506
-0.00394609
0.000722677
-0.00568537
0.001064
-0.00749652
0.00143779
-0.00934558
0.00182513
-0.0111957
0.00220776
-0.0130148
0.00257048
-0.0147731
-0.0164761
0.0029006
5.88907e-05
-0.000834916
0.000206719
-0.00245338
0.00043069
-0.00417006
0.000715805
-0.00597048
0.00104529
-0.007826
0.00140024
-0.00970054
0.00176141
-0.0115569
0.00211112
-0.0133645
0.0024359
-0.0150979
-0.0167656
0.00272546
5.94119e-05
-0.000894328
0.000206755
-0.00260072
0.000427463
-0.00439077
0.000704741
-0.00624776
0.0010203
-0.00814156
0.00135433
-0.0100346
0.0016875
-0.0118901
0.00200308
-0.0136801
0.00228942
-0.0153842
-0.0170148
0.00253864
5.96349e-05
-0.000953963
0.000205661
-0.00274675
0.00042177
-0.00460688
0.000689467
-0.00651545
0.000989144
-0.00844124
0.00130034
-0.0103458
0.00160398
-0.0121937
0.0018845
-0.0139606
0.00213218
-0.0156319
-0.0172241
0.00234145
5.95449e-05
-0.00101351
0.000203404
-0.00289061
0.000413578
-0.00481706
0.000670002
-0.00677188
0.000951962
-0.0087232
0.00123862
-0.0106324
0.00151147
-0.0124666
0.00175631
-0.0142054
0.00196535
-0.015841
-0.0173939
0.0021352
5.91288e-05
-0.00107264
0.000199956
-0.00303144
0.000402872
-0.00501997
0.000646401
-0.00701541
0.000908956
-0.00898575
0.00116962
-0.0108931
0.00141066
-0.0127076
0.00161945
-0.0144142
0.00179009
-0.0160116
-0.017525
0.0019212
5.83748e-05
-0.00113101
0.000195297
-0.00316836
0.000389659
-0.00521433
0.000618757
-0.00724451
0.000860373
-0.00922737
0.00109378
-0.0111265
0.00130227
-0.0129161
0.00147488
-0.0145868
0.00160755
-0.0161443
-0.0176182
0.00170069
5.72742e-05
-0.00118829
0.000189421
-0.00330051
0.000373969
-0.00539888
0.000587194
-0.00745773
0.000806505
-0.00944668
0.00101162
-0.0113316
0.00118706
-0.0130915
0.00132356
-0.0147234
0.00141884
-0.0162395
-0.0176742
0.00147487
5.50079e-05
-0.00124329
0.000180875
-0.00342637
0.000353921
-0.00557193
0.000549607
-0.00765342
0.000745211
-0.00964228
0.000921124
-0.0115075
0.00106322
-0.0132336
0.00116397
-0.0148241
0.00122271
-0.0162983
-0.0176942
0.00124274
5.31459e-05
-0.00129644
0.000172503
-0.00354573
0.000333368
-0.00573279
0.000510638
-0.00783069
0.000681726
-0.00981337
0.000827924
-0.0116537
0.000936598
-0.0133423
0.00100194
-0.0148894
0.0010248
-0.0163211
-0.0176791
0.00100961
5.09084e-05
-0.00134735
0.000162931
-0.00365775
0.000310535
-0.0058804
0.000468301
-0.00798845
0.000614025
-0.0099591
0.00073009
-0.0117698
0.000805427
-0.0134177
0.000835906
-0.0149199
0.000823749
-0.016309
-0.0176296
0.000774324
4.82995e-05
-0.00139565
0.000152192
-0.00376164
0.000285534
-0.00601374
0.00042284
-0.00812576
0.000542522
-0.0100788
0.000628216
-0.0118555
0.000670462
-0.0134599
0.000666728
-0.0149162
0.000620462
-0.0162627
-0.0175469
0.00053777
4.53262e-05
-0.00144097
0.000140334
-0.00385665
0.000258495
-0.0061319
0.000374517
-0.00824178
0.000467644
-0.0101719
0.000522896
-0.0119107
0.000532433
-0.0134694
0.000495217
-0.014879
0.000415762
-0.0161833
-0.0174319
0.000300764
4.19991e-05
-0.00148297
0.000127409
-0.00394206
0.000229563
-0.00623405
0.000323609
-0.00833583
0.000389826
-0.0102381
0.000414718
-0.0119356
0.000392045
-0.0134468
0.000322154
-0.0148091
0.000210413
-0.0160715
-0.0172855
6.39424e-05
3.83321e-05
-0.0015213
0.000113481
-0.00401721
0.000198893
-0.00631947
0.000270406
-0.00840734
0.000309508
-0.0102772
0.00030426
-0.0119304
0.000249971
-0.0133925
0.000148271
-0.0147074
5.88933e-06
-0.0159291
-0.0171079
-0.00017166
3.43422e-05
-0.00155565
9.86208e-05
-0.00408149
0.000166655
-0.0063875
0.000215207
-0.00845589
0.00022713
-0.0102891
0.000192087
-0.0118953
0.000106862
-0.0133073
-2.58664e-05
-0.0145747
-0.000199298
-0.0157557
-0.0169014
-0.000405774
3.00491e-05
-0.0015857
8.29071e-05
-0.00413435
0.000133026
-0.00643762
0.000158314
-0.00848118
0.000143129
-0.010274
7.87479e-05
-0.0118309
-3.6654e-05
-0.0131919
-0.000199437
-0.0144119
-0.000402394
-0.0155528
-0.0166661
-0.000637734
2.54751e-05
-0.00161117
6.64238e-05
-0.0041753
9.81891e-05
-0.00646939
0.000100036
-0.00848303
5.79328e-05
-0.0102319
-3.52275e-05
-0.0117378
-0.000179986
-0.0130471
-0.000371927
-0.0142199
-0.000603533
-0.0153212
-0.0164026
-0.000866998
2.06449e-05
-0.00163182
4.92604e-05
-0.00420391
6.23336e-05
-0.00648246
4.06789e-05
-0.00846137
-2.80385e-05
-0.0101631
-0.000149332
-0.0116165
-0.000322571
-0.0128739
-0.000542733
-0.0139998
-0.000802162
-0.0150617
-0.0161117
-0.00109309
1.55854e-05
-0.0016474
3.15103e-05
-0.00421984
2.5652e-05
-0.0064766
-1.94547e-05
-0.00841627
-0.000114381
-0.0100682
-0.00026308
-0.0114678
-0.000463875
-0.0126731
-0.000711304
-0.0137523
-0.000997753
-0.0147753
-0.0157939
-0.00131556
1.0326e-05
-0.00165773
1.327e-05
-0.00422278
-1.16634e-05
-0.00645167
-8.00703e-05
-0.00834786
-0.000200704
-0.00994758
-0.000376014
-0.0112925
-0.000603394
-0.0124457
-0.00087711
-0.0134786
-0.00118979
-0.0144626
-0.0154497
-0.00153399
4.89763e-06
-0.00166263
-5.36048e-06
-0.00421252
-4.94259e-05
-0.0064076
-0.000140875
-0.00825641
-0.000286634
-0.00980182
-0.0004877
-0.0110914
-0.000740654
-0.0121927
-0.00103964
-0.0131796
-0.00137778
-0.0141245
-0.0150795
-0.00174796
-7.31332e-07
-0.00166189
-2.42865e-05
-0.00418897
-8.74374e-05
-0.00634445
-0.000201591
-0.00814226
-0.000371819
-0.0096316
-0.000597735
-0.0108655
-0.000875209
-0.0119153
-0.00119841
-0.0128564
-0.00156119
-0.0137617
-0.0146836
-0.00195707
-6.36822e-06
-0.00165553
-4.33986e-05
-0.00415194
-0.000125515
-0.00626233
-0.00026195
-0.00800582
-0.000455928
-0.00943762
-0.000705744
-0.0106157
-0.00100665
-0.0116143
-0.00135294
-0.0125101
-0.0017395
-0.0133751
-0.0142622
-0.0021609
-1.21204e-05
-0.00164341
-6.26028e-05
-0.00410145
-0.000163479
-0.00616146
-0.000321697
-0.0078476
-0.000538651
-0.00922066
-0.000811387
-0.0103429
-0.0011346
-0.0112911
-0.00150278
-0.012142
-0.00191217
-0.0129657
-0.0138154
-0.00235903
-1.79153e-05
-0.00162549
-8.18006e-05
-0.00403757
-0.000201155
-0.0060421
-0.000380591
-0.00766817
-0.000619703
-0.00898155
-0.000914353
-0.0100483
-0.00125873
-0.0109468
-0.00164754
-0.0117531
-0.00207866
-0.0125346
-0.0133431
-0.00255095
-2.37196e-05
-0.00160177
-0.000100896
-0.00396039
-0.000238376
-0.00590462
-0.000438404
-0.00746814
-0.000698819
-0.00872114
-0.00101437
-0.00973274
-0.00137874
-0.0105824
-0.00178684
-0.0113451
-0.00223817
-0.0120833
-0.0128458
-0.0027354
-2.9499e-05
-0.00157227
-0.000119793
-0.0038701
-0.000274979
-0.00574944
-0.000494922
-0.0072482
-0.000775759
-0.0084403
-0.00111119
-0.00939731
-0.00149443
-0.0101991
-0.00192033
-0.0109192
-0.00238934
-0.0116143
-0.0123217
-0.00291351
-3.66096e-05
-0.00153566
-0.000140692
-0.00376602
-0.000313621
-0.00557651
-0.000552999
-0.00700882
-0.000853413
-0.00813989
-0.00120766
-0.00904307
-0.00160858
-0.00979822
-0.00205079
-0.0104769
-0.00253009
-0.011135
-0.0118071
-0.00304463
-4.22482e-05
-0.00149341
-0.000158897
-0.00364937
-0.00034847
-0.00538693
-0.000606242
-0.00675105
-0.000925237
-0.00782089
-0.00129737
-0.00867093
-0.00171515
-0.00938043
-0.00217311
-0.010019
-0.00266752
-0.0106406
-0.01128
-0.00319462
-4.78034e-05
-0.00144561
-0.00017667
-0.0035205
-0.000382279
-0.00518132
-0.00065763
-0.00647569
-0.000994265
-0.00748426
-0.00138331
-0.00828189
-0.00181703
-0.00894671
-0.00228997
-0.00954605
-0.00279888
-0.0101317
-0.0107385
-0.00334037
-5.32408e-05
-0.00139237
-0.000193926
-0.00337982
-0.000414915
-0.00496034
-0.000706998
-0.00618361
-0.00106032
-0.00713093
-0.0014653
-0.00787691
-0.00191403
-0.00849798
-0.00240113
-0.00905895
-0.00292356
-0.00960924
-0.010183
-0.00347909
-5.85291e-05
-0.00133384
-0.000210586
-0.00322776
-0.000446253
-0.00472467
-0.000754197
-0.00587567
-0.00112326
-0.00676187
-0.00154321
-0.00745696
-0.00200602
-0.00803517
-0.00250644
-0.00855853
-0.00304168
-0.009074
-0.00961432
-0.00361036
-6.36385e-05
-0.0012702
-0.000226574
-0.00306482
-0.000476179
-0.00447506
-0.000799088
-0.00555276
-0.00118292
-0.00637804
-0.00161688
-0.00702299
-0.00209288
-0.00755918
-0.00260581
-0.0080456
-0.00315318
-0.00852663
-0.00903321
-0.00373429
-6.85403e-05
-0.00120166
-0.000241821
-0.00289154
-0.000504587
-0.0042123
-0.000841542
-0.0052158
-0.00123918
-0.00598041
-0.00168621
-0.00657596
-0.00217449
-0.00707089
-0.00269914
-0.00752096
-0.00325796
-0.00796781
-0.00844033
-0.00385084
-7.32075e-05
-0.00112845
-0.000256258
-0.00270849
-0.000531376
-0.00393718
-0.000881443
-0.00486574
-0.00129191
-0.00556994
-0.00175106
-0.00611681
-0.00225076
-0.00657119
-0.00278633
-0.00698539
-0.00335592
-0.00739823
-0.00783637
-0.00395988
-7.76146e-05
-0.00105084
-0.000269824
-0.00251628
-0.000556456
-0.00365055
-0.000918683
-0.00450351
-0.00134101
-0.00514761
-0.00181135
-0.00564646
-0.0023216
-0.00606094
-0.0028673
-0.00643969
-0.00344695
-0.00681858
-0.007222
-0.00406132
-8.17385e-05
-0.000969101
-0.000282464
-0.00231556
-0.000579742
-0.00335327
-0.000953164
-0.00413009
-0.00138637
-0.0047144
-0.00186697
-0.00516586
-0.00238691
-0.00554101
-0.00294196
-0.00588463
-0.00353096
-0.00622958
-0.00659792
-0.00415504
-8.55576e-05
-0.000883543
-0.000294123
-0.00210699
-0.000601157
-0.00304624
-0.000984795
-0.00374645
-0.00142791
-0.00427129
-0.00191784
-0.00467593
-0.0024466
-0.00501225
-0.00301021
-0.00532102
-0.00360782
-0.00563197
-0.00596486
-0.00424089
-8.90526e-05
-0.000794491
-0.000304756
-0.00189129
-0.000620632
-0.00273036
-0.0010135
-0.00335358
-0.00146554
-0.00381924
-0.00196387
-0.0041776
-0.00250059
-0.00447553
-0.00307197
-0.00474965
-0.00367742
-0.00502651
-0.00532357
-0.00431871
-9.22059e-05
-0.000702285
-0.00031432
-0.00166918
-0.000638106
-0.00240657
-0.0010392
-0.00295249
-0.00149919
-0.00335926
-0.00200499
-0.00367179
-0.00254881
-0.00393172
-0.00312713
-0.00417133
-0.00373965
-0.00441399
-0.00467486
-0.00438836
-9.50021e-05
-0.000607283
-0.000322776
-0.0014414
-0.000653522
-0.00207583
-0.00106184
-0.00254418
-0.00152878
-0.00289231
-0.00204114
-0.00315944
-0.00259118
-0.00338167
-0.00317561
-0.00358691
-0.00379438
-0.00379523
-0.00401955
-0.00444968
-9.74276e-05
-0.000509855
-0.000330092
-0.00120874
-0.000666834
-0.00173909
-0.00108135
-0.00212966
-0.00155427
-0.0024194
-0.00207224
-0.00264146
-0.00262764
-0.00282627
-0.00321734
-0.00299721
-0.00384151
-0.00317106
-0.00335852
-0.00450254
-9.9471e-05
-0.000410384
-0.00033624
-0.000971968
-0.000677999
-0.00139733
-0.0010977
-0.00170996
-0.00157559
-0.0019415
-0.00209825
-0.0021188
-0.00265813
-0.0022664
-0.00325224
-0.0024031
-0.00388095
-0.00254235
-0.00269267
-0.0045468
-0.000101123
-0.000309262
-0.000341196
-0.000731895
-0.000686985
-0.00105154
-0.00111083
-0.00128611
-0.00159272
-0.00145962
-0.00211913
-0.00159238
-0.00268259
-0.00170294
-0.00328025
-0.00180544
-0.00391262
-0.00190998
-0.00202294
-0.00458235
-0.000102375
-0.000206886
-0.000344942
-0.000489328
-0.000693763
-0.000702717
-0.00112073
-0.000859145
-0.00160561
-0.00097474
-0.00213484
-0.00106315
-0.00270099
-0.00113679
-0.00330131
-0.00120511
-0.00393644
-0.00127486
-0.00135026
-0.00460911
-0.000103223
-0.000103663
-0.000347463
-0.000245088
-0.000698312
-0.000351868
-0.00112736
-0.000430094
-0.00161423
-0.000487869
-0.00214534
-0.000532046
-0.00271329
-0.000568843
-0.0033154
-0.000603
-0.00395237
-0.000637889
-0.000675622
-0.00462701
-0.000103663
1.16376e-11
-0.000348751
4.77615e-11
-0.000700619
8.53989e-11
-0.00113071
1.09065e-10
-0.00161858
1.18343e-10
-0.00215063
1.18327e-10
-0.00271947
1.13183e-10
-0.00332247
1.06059e-10
-0.00396036
9.86186e-11
9.13517e-11
-0.00463598
-0.000103663
0.000103663
-0.000348751
0.000245088
-0.000700619
0.000351868
-0.00113071
0.000430094
-0.00161858
0.000487869
-0.00215063
0.000532046
-0.00271947
0.000568844
-0.00332247
0.000603
-0.00396036
0.00063789
0.000675622
-0.00463598
-0.000103223
0.000206886
-0.000347463
0.000489328
-0.000698312
0.000702717
-0.00112736
0.000859145
-0.00161423
0.00097474
-0.00214534
0.00106315
-0.00271329
0.00113679
-0.0033154
0.00120511
-0.00395237
0.00127486
0.00135026
-0.00462701
-0.000102375
0.000309262
-0.000344942
0.000731895
-0.000693763
0.00105154
-0.00112073
0.00128611
-0.00160561
0.00145962
-0.00213484
0.00159238
-0.00270099
0.00170294
-0.00330131
0.00180544
-0.00393644
0.00190998
0.00202294
-0.00460911
-0.000101123
0.000410384
-0.000341196
0.000971969
-0.000686985
0.00139733
-0.00111083
0.00170996
-0.00159272
0.0019415
-0.00211913
0.0021188
-0.00268259
0.0022664
-0.00328025
0.0024031
-0.00391262
0.00254235
0.00269267
-0.00458235
-9.9471e-05
0.000509855
-0.00033624
0.00120874
-0.000677999
0.00173909
-0.0010977
0.00212966
-0.00157559
0.0024194
-0.00209825
0.00264146
-0.00265813
0.00282627
-0.00325224
0.00299721
-0.00388095
0.00317106
0.00335852
-0.0045468
-9.74276e-05
0.000607283
-0.000330092
0.0014414
-0.000666834
0.00207583
-0.00108135
0.00254418
-0.00155427
0.00289231
-0.00207224
0.00315944
-0.00262764
0.00338167
-0.00321734
0.00358691
-0.00384151
0.00379523
0.00401955
-0.00450254
-9.50021e-05
0.000702285
-0.000322776
0.00166918
-0.000653522
0.00240657
-0.00106184
0.00295249
-0.00152878
0.00335926
-0.00204114
0.00367179
-0.00259118
0.00393172
-0.00317561
0.00417133
-0.00379438
0.00441399
0.00467486
-0.00444968
-9.22059e-05
0.000794491
-0.00031432
0.00189129
-0.000638106
0.00273036
-0.0010392
0.00335358
-0.00149919
0.00381924
-0.00200499
0.0041776
-0.00254881
0.00447553
-0.00312713
0.00474965
-0.00373965
0.00502651
0.00532357
-0.00438836
-8.90526e-05
0.000883543
-0.000304756
0.00210699
-0.000620632
0.00304624
-0.0010135
0.00374645
-0.00146554
0.00427129
-0.00196387
0.00467593
-0.00250059
0.00501225
-0.00307197
0.00532102
-0.00367742
0.00563197
0.00596486
-0.00431871
-8.55576e-05
0.000969101
-0.000294123
0.00231556
-0.000601157
0.00335327
-0.000984795
0.00413009
-0.00142791
0.0047144
-0.00191784
0.00516586
-0.0024466
0.00554101
-0.00301021
0.00588463
-0.00360782
0.00622958
0.00659792
-0.00424089
-8.17385e-05
0.00105084
-0.000282464
0.00251628
-0.000579742
0.00365055
-0.000953164
0.00450351
-0.00138637
0.00514761
-0.00186697
0.00564646
-0.00238691
0.00606094
-0.00294196
0.00643969
-0.00353096
0.00681858
0.007222
-0.00415504
-7.76146e-05
0.00112845
-0.000269824
0.00270849
-0.000556456
0.00393718
-0.000918683
0.00486574
-0.00134101
0.00556994
-0.00181135
0.00611681
-0.0023216
0.00657119
-0.0028673
0.00698539
-0.00344695
0.00739823
0.00783637
-0.00406132
-7.32075e-05
0.00120166
-0.000256258
0.00289154
-0.000531376
0.0042123
-0.000881443
0.0052158
-0.00129191
0.00598041
-0.00175106
0.00657596
-0.00225076
0.00707089
-0.00278633
0.00752096
-0.00335592
0.00796781
0.00844033
-0.00395988
-6.85403e-05
0.0012702
-0.000241821
0.00306482
-0.000504587
0.00447506
-0.000841542
0.00555276
-0.00123918
0.00637804
-0.00168621
0.00702299
-0.00217449
0.00755918
-0.00269914
0.0080456
-0.00325796
0.00852663
0.00903321
-0.00385084
-6.36385e-05
0.00133384
-0.000226574
0.00322776
-0.000476179
0.00472467
-0.000799088
0.00587567
-0.00118292
0.00676187
-0.00161688
0.00745696
-0.00209288
0.00803517
-0.00260581
0.00855853
-0.00315318
0.00907401
0.00961432
-0.00373429
-5.85291e-05
0.00139237
-0.000210586
0.00337982
-0.000446253
0.00496034
-0.000754197
0.00618361
-0.00112326
0.00713093
-0.00154321
0.00787691
-0.00200602
0.00849798
-0.00250644
0.00905895
-0.00304168
0.00960924
0.010183
-0.00361036
-5.32408e-05
0.00144561
-0.000193926
0.0035205
-0.000414915
0.00518132
-0.000706998
0.0064757
-0.00106032
0.00748426
-0.0014653
0.00828189
-0.00191403
0.00894671
-0.00240113
0.00954605
-0.00292356
0.0101317
0.0107385
-0.00347909
-4.78034e-05
0.00149341
-0.00017667
0.00364937
-0.000382279
0.00538693
-0.00065763
0.00675105
-0.000994265
0.00782089
-0.00138331
0.00867093
-0.00181703
0.00938043
-0.00228997
0.010019
-0.00279888
0.0106406
0.01128
-0.00334037
-4.22482e-05
0.00153566
-0.000158897
0.00376602
-0.00034847
0.00557651
-0.000606242
0.00700882
-0.000925237
0.00813989
-0.00129737
0.00904307
-0.00171515
0.00979822
-0.00217311
0.0104769
-0.00266752
0.011135
0.0118071
-0.00319462
-3.66096e-05
0.00157227
-0.000140692
0.0038701
-0.000313621
0.00574944
-0.000552999
0.0072482
-0.000853413
0.0084403
-0.00120766
0.00939731
-0.00160858
0.0101991
-0.00205079
0.0109192
-0.00253009
0.0116143
0.0123217
-0.00304463
-2.9499e-05
0.00160177
-0.000119793
0.00396039
-0.000274979
0.00590462
-0.000494922
0.00746814
-0.000775759
0.00872114
-0.00111119
0.00973274
-0.00149443
0.0105824
-0.00192033
0.0113451
-0.00238934
0.0120833
0.0128458
-0.00291351
-2.37196e-05
0.00162549
-0.000100896
0.00403757
-0.000238376
0.0060421
-0.000438404
0.00766817
-0.000698819
0.00898155
-0.00101437
0.0100483
-0.00137874
0.0109468
-0.00178684
0.0117531
-0.00223817
0.0125346
0.0133431
-0.0027354
-1.79153e-05
0.00164341
-8.18006e-05
0.00410145
-0.000201155
0.00616146
-0.000380591
0.0078476
-0.000619703
0.00922066
-0.000914353
0.0103429
-0.00125873
0.0112911
-0.00164754
0.012142
-0.00207866
0.0129657
0.0138154
-0.00255095
-1.21204e-05
0.00165553
-6.26028e-05
0.00415194
-0.000163479
0.00626233
-0.000321697
0.00800582
-0.000538651
0.00943762
-0.000811387
0.0106157
-0.0011346
0.0116143
-0.00150278
0.0125101
-0.00191217
0.0133751
0.0142622
-0.00235903
-6.36822e-06
0.00166189
-4.33986e-05
0.00418897
-0.000125516
0.00634445
-0.00026195
0.00814226
-0.000455928
0.0096316
-0.000705744
0.0108655
-0.00100665
0.0119153
-0.00135294
0.0128564
-0.0017395
0.0137617
0.0146836
-0.0021609
-7.31334e-07
0.00166263
-2.42865e-05
0.00421252
-8.74374e-05
0.0064076
-0.000201591
0.00825641
-0.000371819
0.00980182
-0.000597735
0.0110914
-0.000875209
0.0121927
-0.00119841
0.0131796
-0.00156119
0.0141245
0.0150795
-0.00195707
4.89763e-06
0.00165773
-5.36048e-06
0.00422278
-4.94259e-05
0.00645167
-0.000140875
0.00834786
-0.000286634
0.00994758
-0.0004877
0.0112925
-0.000740654
0.0124457
-0.00103964
0.0134786
-0.00137778
0.0144626
0.0154497
-0.00174796
1.0326e-05
0.0016474
1.327e-05
0.00421984
-1.16634e-05
0.0064766
-8.00703e-05
0.00841627
-0.000200704
0.0100682
-0.000376014
0.0114678
-0.000603394
0.0126731
-0.00087711
0.0137523
-0.00118979
0.0147753
0.0157939
-0.00153399
1.55854e-05
0.00163182
3.15103e-05
0.00420391
2.5652e-05
0.00648246
-1.94547e-05
0.00846137
-0.000114381
0.0101631
-0.00026308
0.0116165
-0.000463875
0.0128739
-0.000711304
0.0139998
-0.000997753
0.0150617
0.0161117
-0.00131556
2.06449e-05
0.00161117
4.92604e-05
0.0041753
6.23336e-05
0.00646939
4.06789e-05
0.00848303
-2.80385e-05
0.0102319
-0.000149332
0.0117378
-0.000322571
0.0130471
-0.000542733
0.0142199
-0.000802162
0.0153212
0.0164026
-0.00109309
2.54751e-05
0.0015857
6.64238e-05
0.00413435
9.81891e-05
0.00643762
0.000100036
0.00848118
5.79328e-05
0.010274
-3.52275e-05
0.0118309
-0.000179986
0.0131919
-0.000371927
0.0144119
-0.000603533
0.0155528
0.0166661
-0.000866998
3.00491e-05
0.00155565
8.29071e-05
0.00408149
0.000133026
0.0063875
0.000158314
0.00845589
0.000143129
0.0102891
7.87479e-05
0.0118953
-3.6654e-05
0.0133073
-0.000199437
0.0145747
-0.000402394
0.0157557
0.0169014
-0.000637734
3.43422e-05
0.0015213
9.86208e-05
0.00401721
0.000166655
0.00631947
0.000215207
0.00840734
0.00022713
0.0102772
0.000192087
0.0119304
0.000106862
0.0133925
-2.58664e-05
0.0147074
-0.000199298
0.0159291
0.0171079
-0.000405774
3.83321e-05
0.00148297
0.000113481
0.00394206
0.000198893
0.00623405
0.000270406
0.00833583
0.000309508
0.0102381
0.00030426
0.0119356
0.000249971
0.0134468
0.000148271
0.0148091
5.88936e-06
0.0160715
0.0172855
-0.00017166
4.19991e-05
0.00144097
0.000127409
0.00385665
0.000229563
0.0061319
0.000323609
0.00824178
0.000389826
0.0101719
0.000414718
0.0119107
0.000392045
0.0134694
0.000322154
0.014879
0.000210413
0.0161833
0.0174319
6.39424e-05
4.53262e-05
0.00139565
0.000140334
0.00376164
0.000258495
0.00601374
0.000374517
0.00812576
0.000467644
0.0100788
0.000522896
0.0118555
0.000532433
0.0134599
0.000495217
0.0149162
0.000415762
0.0162627
0.0175469
0.000300764
4.82995e-05
0.00134735
0.000152192
0.00365775
0.000285534
0.0058804
0.00042284
0.00798845
0.000542522
0.0099591
0.000628216
0.0117698
0.000670462
0.0134177
0.000666728
0.0149199
0.000620462
0.016309
0.0176296
0.00053777
5.09084e-05
0.00129644
0.000162931
0.00354573
0.000310535
0.00573279
0.000468301
0.00783069
0.000614025
0.00981337
0.00073009
0.0116537
0.000805428
0.0133423
0.000835906
0.0148894
0.000823749
0.0163211
0.0176791
0.000774324
5.31459e-05
0.00124329
0.000172503
0.00342637
0.000333368
0.00557193
0.000510638
0.00765342
0.000681726
0.00964228
0.000827924
0.0115075
0.000936598
0.0132336
0.00100194
0.0148241
0.0010248
0.0162983
0.0176942
0.00100961
5.50079e-05
0.00118829
0.000180875
0.00330051
0.000353921
0.00539888
0.000549607
0.00745773
0.000745211
0.00944668
0.000921124
0.0113316
0.00106322
0.0130915
0.00116397
0.0147234
0.00122271
0.0162395
0.0176742
0.00124274
5.72742e-05
0.00113101
0.000189421
0.00316836
0.000373969
0.00521433
0.000587194
0.00724451
0.000806505
0.00922737
0.00101162
0.0111265
0.00118706
0.0129161
0.00132356
0.0145868
0.00141884
0.0161443
0.0176182
0.00147487
5.83748e-05
0.00107264
0.000195297
0.00303144
0.000389659
0.00501997
0.000618757
0.00701541
0.000860373
0.00898575
0.00109378
0.0108931
0.00130227
0.0127076
0.00147488
0.0144142
0.00160755
0.0160116
0.017525
0.00170069
5.91288e-05
0.00101351
0.000199956
0.00289061
0.000402872
0.00481706
0.000646401
0.00677188
0.000908956
0.0087232
0.00116962
0.0106324
0.00141066
0.0124666
0.00161945
0.0142054
0.00179009
0.015841
0.0173939
0.0019212
5.95449e-05
0.000953963
0.000203404
0.00274675
0.000413578
0.00460688
0.000670002
0.00651546
0.000951962
0.00844124
0.00123862
0.0103458
0.00151147
0.0121937
0.00175631
0.0139606
0.00196535
0.0156319
0.0172241
0.0021352
5.96349e-05
0.000894328
0.000205661
0.00260072
0.00042177
0.00439077
0.000689467
0.00624776
0.000989144
0.00814156
0.00130034
0.0100346
0.00160398
0.0118901