/*--------------------------------*- C++ -*----------------------------------*\
  =========                 |
  \\      /  F ield         | OpenFOAM: The Open Source CFD Toolbox
   \\    /   O peration     | Website:  https://openfoam.org
    \\  /    A nd           | Version:  7
     \\/     M anipulation  |
\*---------------------------------------------------------------------------*/
FoamFile
{
    version     2.0;
    format      ascii;
    class       volVectorField;
    location    "5";
    object      U;
}
// * * * * * * * * * * * * * * * * * * * * * * * * * * * * * * * * * * * * * //

dimensions      [0 1 -1 0 0 0 0];

internalField   nonuniform List<vector> 
10500
(
(-0.001804 0.000433994 -3.25507e-21)
(-0.00422289 0.000191594 6.22303e-21)
(-0.00384637 -0.000455386 -2.58042e-20)
(0.00137267 -0.00130184 -1.41204e-20)
(0.0114621 -0.00219448 -3.06759e-20)
(0.0261769 -0.00306668 -7.43175e-21)
(0.0449662 -0.0038649 -1.19823e-20)
(0.0673165 -0.0045378 -2.99642e-20)
(0.091666 -0.00498651 7.8837e-21)
(0.118424 -0.00524384 3.22506e-21)
(-0.00183442 0.00128313 -5.65386e-22)
(-0.0040411 0.00054225 -9.29613e-21)
(-0.00325148 -0.00139824 -1.64598e-20)
(0.00246753 -0.00393081 3.31088e-20)
(0.0131229 -0.0065977 4.07072e-20)
(0.0284443 -0.0092011 1.37913e-21)
(0.0478696 -0.0115817 1.4488e-21)
(0.0708915 -0.0135856 3.5719e-20)
(0.0958716 -0.01492 -1.78095e-20)
(0.123511 -0.0156635 -5.80145e-20)
(-0.00188989 0.0020762 3.63418e-20)
(-0.00366781 0.000795683 -7.80006e-20)
(-0.00205167 -0.00243741 2.84358e-21)
(0.00466563 -0.00663599 3.9364e-21)
(0.0164497 -0.0110443 -1.68432e-20)
(0.0329793 -0.0153395 -4.6718e-20)
(0.0536703 -0.0192603 1.05775e-19)
(0.078027 -0.0225509 -1.20908e-20)
(0.104258 -0.0247361 9.73505e-21)
(0.133644 -0.0258804 -9.19626e-21)
(-0.00195985 0.00277739 -8.29102e-20)
(-0.00308379 0.000889687 1.59241e-19)
(-0.000227107 -0.00363412 -8.34811e-20)
(0.00798355 -0.00946532 2.70164e-20)
(0.0214523 -0.0155604 -8.92482e-20)
(0.0397823 -0.0214817 1.8334e-19)
(0.0623559 -0.0268729 -3.49192e-20)
(0.0886937 -0.0313764 2.79832e-20)
(0.116775 -0.0343554 9.53429e-20)
(0.14874 -0.0357594 -4.75384e-20)
(-0.00202878 0.00335313 8.52857e-20)
(-0.0022607 0.000766195 -1.04016e-19)
(0.00225148 -0.0050447 -8.47143e-20)
(0.0124457 -0.0124615 -5.56276e-20)
(0.0281454 -0.0201669 2.96118e-20)
(0.0488536 -0.0276229 -2.47236e-19)
(0.0739075 -0.0343866 -1.67432e-19)
(0.102848 -0.0400006 -6.30532e-20)
(0.13335 -0.0436957 -1.22609e-19)
(0.168675 -0.0451647 7.25875e-20)
(-0.00207652 0.00377284 1.26846e-19)
(-0.00116166 0.000372917 1.52119e-20)
(0.00542223 -0.0067189 1.3921e-19)
(0.0180838 -0.0156603 -6.26667e-21)
(0.0365475 -0.0248779 2.37273e-19)
(0.0601932 -0.0337513 1.26829e-19)
(0.0882998 -0.0417627 -1.40526e-19)
(0.12043 -0.0483564 2.38001e-19)
(0.153885 -0.0526714 1.30144e-19)
(0.193286 -0.0539605 4.5982e-20)
(-0.00207859 0.00400926 -1.2592e-19)
(0.000257892 -0.000335081 1.40386e-19)
(0.00933128 -0.00869809 -1.33713e-19)
(0.0249359 -0.0190888 -2.61004e-19)
(0.0466807 -0.0296992 -4.29494e-19)
(0.0737995 -0.0398472 -8.56816e-20)
(0.1055 -0.0489547 1.90919e-19)
(0.141366 -0.0563698 -1.45725e-20)
(0.178258 -0.0611923 -2.94297e-19)
(0.222367 -0.0620116 6.75814e-20)
(-0.00200643 0.00403902 -1.06884e-19)
(0.00204946 -0.00139403 -1.7784e-19)
(0.0140317 -0.0110137 5.88769e-21)
(0.0330457 -0.0227637 2.18825e-19)
(0.0585694 -0.0346261 4.73471e-19)
(0.0896694 -0.0458816 2.62628e-19)
(0.125469 -0.0559073 -2.3936e-20)
(0.165567 -0.0639591 -5.04869e-19)
(0.206325 -0.0691627 1.90951e-19)
(0.255674 -0.0691834 -1.97672e-19)
(-0.0018285 0.00384506 -1.35652e-19)
(0.00427085 -0.00283173 6.64256e-20)
(0.0195821 -0.0136859 3.12176e-19)
(0.0424609 -0.02669 -3.28593e-20)
(0.0722394 -0.039643 -1.56035e-19)
(0.107797 -0.0518143 1.01429e-19)
(0.148158 -0.0625549 1.61757e-19)
(0.192926 -0.0710336 3.48126e-19)
(0.23792 -0.0764803 1.0188e-20)
(0.292922 -0.0753433 1.98215e-19)
(-0.00151139 0.00341563 7.41243e-20)
(0.00698416 -0.00466584 -1.55918e-19)
(0.026046 -0.0167227 -3.8981e-20)
(0.0532322 -0.0308597 2.17112e-19)
(0.087716 -0.0447214 2.26087e-19)
(0.12817 -0.0575938 -5.28341e-19)
(0.173508 -0.0688218 -2.62317e-19)
(0.223321 -0.0774937 -8.93929e-20)
(0.272853 -0.0830357 3.40009e-20)
(0.333787 -0.0803617 6.11813e-20)
(-0.00101934 0.00274341 3.73443e-20)
(0.0102545 -0.00690184 -1.36564e-19)
(0.0334897 -0.0201184 -1.92148e-19)
(0.0654111 -0.0352511 -1.33345e-19)
(0.105023 -0.0498196 -4.12913e-19)
(0.150773 -0.0631567 3.69363e-19)
(0.20145 -0.0746212 2.96264e-19)
(0.256608 -0.0832311 -3.73023e-19)
(0.310914 -0.0887116 -1.97867e-21)
(0.377909 -0.0841131 -9.11675e-21)
(-0.000315359 0.00182705 -7.47783e-20)
(0.0141492 -0.00953363 2.40143e-19)
(0.0419803 -0.0238535 8.89096e-20)
(0.0790482 -0.0398278 -5.20269e-21)
(0.124178 -0.0548823 2.66211e-19)
(0.175581 -0.0684275 -4.44035e-19)
(0.231902 -0.0798563 2.79453e-19)
(0.292627 -0.0881302 2.61594e-19)
(0.351872 -0.0933821 1.20582e-19)
(0.424884 -0.0864777 -1.0504e-19)
(0.000637995 0.000671282 -2.22115e-19)
(0.0187358 -0.0125433 -2.38706e-19)
(0.0515842 -0.0278942 -5.38278e-20)
(0.094191 -0.0445385 3.82662e-19)
(0.145196 -0.0598404 -1.23442e-19)
(0.202557 -0.0733197 5.00468e-19)
(0.264767 -0.0844217 -1.44335e-19)
(0.331197 -0.09207 -1.1085e-19)
(0.395474 -0.0969131 -9.66736e-20)
(0.474273 -0.087343 6.17757e-19)
(0.00187792 -0.000713272 7.75499e-19)
(0.0240808 -0.0159009 4.02546e-19)
(0.0623649 -0.0321919 -3.03912e-19)
(0.110882 -0.0493171 -3.15508e-19)
(0.16808 -0.0646118 2.2667e-19)
(0.231653 -0.0777362 -3.87422e-19)
(0.29993 -0.0882051 5.62252e-20)
(0.372112 -0.0949278 1.20372e-19)
(0.441452 -0.0991611 4.42752e-20)
(0.525598 -0.0866061 -1.80583e-19)
(0.00344072 -0.0023102 -8.2167e-19)
(0.0302482 -0.0195643 1.63571e-20)
(0.074381 -0.036684 1.22719e-20)
(0.129154 -0.0540831 -5.8527e-20)
(0.192822 -0.0691015 -5.01955e-19)
(0.262803 -0.0815719 -2.30314e-20)
(0.337256 -0.0910907 -1.11599e-19)
(0.415148 -0.0965846 2.12956e-19)
(0.489522 -0.0999755 -3.28395e-19)
(0.578343 -0.0841842 -4.7488e-20)
(0.00536105 -0.00409747 4.08217e-19)
(0.0372972 -0.0234801 -2.80986e-21)
(0.0876838 -0.0412937 2.36337e-19)
(0.149031 -0.0587422 8.31316e-20)
(0.219399 -0.0732037 -4.03026e-19)
(0.295923 -0.084715 5.04604e-19)
(0.376588 -0.092963 -4.52611e-19)
(0.460058 -0.0969316 1.76358e-19)
(0.539393 -0.0992029 2.87811e-19)
(0.631968 -0.0800274 -2.31301e-19)
(0.0076713 -0.00604774 -2.27475e-19)
(0.0452814 -0.0275832 -7.18665e-20)
(0.102315 -0.0459313 -4.30158e-19)
(0.170524 -0.0631876 -2.4374e-19)
(0.24777 -0.0768029 4.37516e-19)
(0.330907 -0.0870504 -8.22371e-19)
(0.41774 -0.093712 3.82806e-19)
(0.50657 -0.0958788 -4.9775e-19)
(0.590756 -0.0966799 -6.63445e-19)
(0.685888 -0.0740809 3.02826e-19)
(0.0104012 -0.008129 3.77275e-19)
(0.054247 -0.0317991 -4.30394e-19)
(0.118306 -0.0504955 1.0689e-19)
(0.193626 -0.0673016 4.73364e-19)
(0.277874 -0.0797762 2.60902e-19)
(0.367623 -0.0884624 -5.90784e-21)
(0.460502 -0.0932399 -1.13965e-19)
(0.554399 -0.0933654 1.45662e-19)
(0.643285 -0.0921967 5.94111e-19)
(0.739382 -0.0661643 -6.41284e-19)
(0.0135774 -0.0103052 2.09887e-19)
(0.0642319 -0.0360443 1.36504e-19)
(0.135674 -0.0548749 4.62664e-19)
(0.218314 -0.0709576 -1.83474e-19)
(0.309628 -0.0819961 -5.95891e-19)
(0.405913 -0.0888379 2.3692e-19)
(0.504633 -0.0914704 -3.16089e-19)
(0.603265 -0.0893731 2.22327e-19)
(0.696701 -0.0855097 -3.70103e-19)
(0.791631 -0.0562458 7.14893e-19)
(0.0172202 -0.012534 2.20094e-19)
(0.075261 -0.0402244 3.00449e-19)
(0.154419 -0.0589466 -8.74075e-20)
(0.244543 -0.0740192 7.25288e-20)
(0.34292 -0.0833293 7.11161e-19)
(0.445584 -0.0880671 -1.54179e-19)
(0.549848 -0.0883522 6.69389e-19)
(0.652886 -0.0839427 -3.54434e-19)
(0.750962 -0.076654 -3.24187e-19)
(0.84311 -0.0461008 -4.49605e-19)
(0.0213356 -0.01476 -7.13742e-19)
(0.0873374 -0.0442284 1.82341e-19)
(0.174515 -0.0625707 -4.4132e-19)
(0.272236 -0.076336 2.55781e-20)
(0.377603 -0.0836334 -7.25072e-19)
(0.486399 -0.0860376 9.39752e-20)
(0.595802 -0.083846 -1.49427e-19)
(0.702817 -0.0771828 3.06545e-19)
(0.805754 -0.0664829 3.63943e-19)
(0.898852 -0.0400014 5.78861e-19)
(0.0259311 -0.016933 4.25713e-19)
(0.100457 -0.0479481 -8.77894e-20)
(0.19592 -0.0656124 4.18444e-19)
(0.301297 -0.0777646 -9.47666e-20)
(0.413509 -0.0827758 4.09188e-19)
(0.528095 -0.0826471 5.16296e-19)
(0.64209 -0.0779095 -2.73338e-19)
(0.752335 -0.0692231 -1.65225e-19)
(0.858491 -0.0565001 3.99186e-19)
(0.951485 -0.0390777 -3.68454e-19)
(0.0310225 -0.0190135 -4.93553e-19)
(0.11462 -0.0512874 5.091e-19)
(0.218595 -0.0679486 -5.92159e-19)
(0.331626 -0.0781751 4.30595e-19)
(0.450459 -0.0806389 -4.25507e-19)
(0.570402 -0.0778041 -5.70214e-19)
(0.688326 -0.0704805 2.51554e-19)
(0.800872 -0.0599301 9.05629e-20)
(0.908173 -0.0457826 1.75422e-19)
(0.999507 -0.034794 2.80071e-19)
(0.0366115 -0.0209518 2.48903e-19)
(0.129803 -0.0541376 -5.17852e-19)
(0.242469 -0.0694453 4.88094e-19)
(0.363091 -0.0774309 -6.43817e-19)
(0.488246 -0.0771032 4.66759e-19)
(0.613032 -0.0714173 6.27421e-19)
(0.734135 -0.0614881 1.49225e-19)
(0.848011 -0.0491395 -3.65174e-19)
(0.954691 -0.0337698 -4.16924e-19)
(1.04316 -0.0265474 1.6547e-19)
(0.042691 -0.0226941 1.3008e-19)
(0.145964 -0.0563864 -5.90172e-19)
(0.267448 -0.0699688 3.59242e-19)
(0.395532 -0.0754005 2.56546e-19)
(0.526643 -0.0720594 5.10698e-19)
(0.655685 -0.063411 -6.36709e-19)
(0.779169 -0.0508872 -4.31147e-20)
(0.893414 -0.0367903 -1.15494e-19)
(0.998119 -0.0203746 4.53768e-20)
(1.08293 -0.0152026 -3.45269e-19)
(0.0492476 -0.0241869 -3.51912e-19)
(0.163046 -0.0579236 5.2918e-19)
(0.293419 -0.0693915 -4.92185e-19)
(0.428774 -0.0719635 1.50544e-19)
(0.565404 -0.0654157 -1.17581e-18)
(0.69806 -0.0537338 -3.52032e-20)
(0.823101 -0.0386685 1.76034e-19)
(0.936787 -0.0229058 2.12732e-19)
(1.03846 -0.00565315 2.82989e-19)
(1.11902 -0.00143009 1.59837e-19)
(0.0562619 -0.0253768 -3.21902e-19)
(0.180979 -0.0586423 -4.43943e-19)
(0.320251 -0.0675942 3.38189e-19)
(0.462618 -0.0670144 -1.26056e-19)
(0.604271 -0.0571012 1.90986e-19)
(0.739854 -0.0423614 3.75386e-19)
(0.86562 -0.0248577 2.5388e-20)
(0.977871 -0.00756523 2.72251e-19)
(1.07567 0.0102761 -4.28228e-19)
(1.15147 0.0141907 1.02675e-19)
(0.0637074 -0.0262119 6.62829e-19)
(0.199675 -0.0584412 3.30171e-19)
(0.347793 -0.0644688 7.26657e-22)
(0.496851 -0.0604647 9.47928e-20)
(0.642975 -0.047068 4.31902e-19)
(0.780765 -0.0292981 -4.63057e-19)
(0.906436 -0.00951382 -3.88574e-19)
(1.01643 0.00911083 -3.45539e-19)
(1.10968 0.0272496 4.24469e-19)
(1.18032 0.0311397 -6.1279e-19)
(0.0715508 -0.0266418 1.38917e-19)
(0.219034 -0.0572262 3.34617e-19)
(0.375877 -0.0599208 -1.47847e-19)
(0.531242 -0.0522459 -5.71952e-20)
(0.681239 -0.0352937 -2.18254e-19)
(0.820497 -0.0145771 -1.482e-19)
(0.945277 0.00727396 1.67275e-19)
(1.05228 0.0269716 -1.75046e-19)
(1.14044 0.0450773 -2.26099e-19)
(1.20559 0.0489692 2.32518e-19)
(0.0797518 -0.0266189 -4.64197e-19)
(0.238941 -0.0549119 1.90782e-19)
(0.404319 -0.0538713 -2.98919e-19)
(0.56555 -0.0423113 1.09197e-19)
(0.718784 -0.0217819 5.11761e-19)
(0.858765 0.00174039 2.34501e-19)
(0.981894 0.02539 -2.30963e-19)
(1.08524 0.0458458 3.18029e-19)
(1.16792 0.0635595 3.57589e-21)
(1.22737 0.0673053 4.44549e-21)
(0.0882637 -0.0260991 1.94899e-19)
(0.259266 -0.051424 -3.82854e-19)
(0.432922 -0.0462592 6.07195e-19)
(0.599524 -0.0306378 -3.17597e-19)
(0.755332 -0.00656315 -2.09097e-19)
(0.895296 0.0195667 2.43064e-19)
(1.01607 0.0446965 5.73875e-20)
(1.11519 0.0655504 -2.65217e-19)
(1.19211 0.0824967 -8.81666e-20)
(1.24576 0.0858404 2.00121e-19)
(0.097033 -0.0250423 1.71275e-19)
(0.279869 -0.0467004 -7.74484e-20)
(0.461477 -0.037043 -1.42417e-19)
(0.632907 -0.017227 1.03099e-19)
(0.790607 0.0103057 1.43468e-19)
(0.929838 0.03879 2.46094e-19)
(1.04761 0.0650378 7.28332e-20)
(1.14203 0.0858963 4.81133e-19)
(1.21301 0.101696 -8.42989e-20)
(1.26087 0.104325 -3.22454e-19)
(0.106 -0.0234136 -6.23141e-19)
(0.300597 -0.040693 2.88305e-20)
(0.489767 -0.0262021 5.44997e-21)
(0.665442 -0.00210549 9.52032e-20)
(0.824345 0.0287422 -5.50317e-19)
(0.962159 0.0592768 -2.3122e-19)
(1.07635 0.0862448 1.29213e-19)
(1.1657 0.106694 -2.15621e-19)
(1.23069 0.120976 -2.14636e-19)
(1.27285 0.122557 2.59888e-19)
(0.1151 -0.0211837 1.9253e-19)
(0.321291 -0.0333691 4.42951e-20)
(0.517567 -0.0137378 -8.28379e-20)
(0.696872 0.0146748 -8.80968e-20)
(0.856296 0.0486397 1.09894e-19)
(0.992052 0.0808754 5.79565e-20)
(1.10218 0.108139 6.69205e-20)
(1.18618 0.127756 1.37194e-20)
(1.24521 0.140167 2.51874e-19)
(1.28187 0.140377 -6.75329e-20)
(0.124261 -0.0183297 1.15502e-21)
(0.341781 -0.0247121 -2.84239e-20)
(0.54465 0.000326018 3.84939e-20)
(0.726945 0.0330372 6.02583e-20)
(0.886225 0.0698698 1.12452e-19)
(1.01934 0.103419 1.87094e-19)
(1.12499 0.130538 -1.49931e-19)
(1.20349 0.148905 9.29905e-20)
(1.25667 0.159118 -8.70789e-20)
(1.28811 0.157657 3.14181e-20)
(0.133409 -0.0148361 2.30234e-19)
(0.361893 -0.0147229 -1.23901e-20)
(0.570789 0.0159425 1.01138e-19)
(0.755421 0.0528812 7.72531e-20)
(0.913917 0.0922839 -3.02823e-20)
(1.04387 0.126728 -7.58189e-20)
(1.14473 0.153254 4.29704e-20)
(1.21765 0.169967 -1.10474e-19)
(1.2652 0.177689 1.03412e-19)
(1.29174 0.174298 -7.16108e-20)
(0.142465 -0.0106948 -1.78425e-19)
(0.381451 -0.00342037 -8.19653e-20)
(0.59576 0.0330421 -1.4719e-19)
(0.78207 0.0740839 -6.07126e-20)
(0.939181 0.115716 1.40428e-19)
(1.06552 0.150616 -8.23075e-20)
(1.16137 0.176104 1.50185e-19)
(1.22874 0.190782 7.25931e-20)
(1.27092 0.195759 -5.46514e-20)
(1.29295 0.190223 1.0028e-19)
(0.15135 -0.00590639 1.87944e-19)
(0.400276 0.0091577 1.8659e-19)
(0.619346 0.0515325 1.15716e-19)
(0.80668 0.0965012 -1.15243e-19)
(0.96185 0.139986 -9.32957e-20)
(1.0842 0.174888 -1.1009e-19)
(1.17491 0.198906 -7.25256e-20)
(1.23683 0.211201 -6.54136e-20)
(1.27399 0.213219 -3.25573e-20)
(1.29193 0.20537 -5.90585e-20)
(0.159982 -0.000480449 -7.93409e-20)
(0.418196 0.022955 -6.4644e-20)
(0.641341 0.0713001 -4.36213e-20)
(0.82906 0.119971 7.46863e-20)
(0.981787 0.164902 8.01978e-20)
(1.09986 0.19935 9.48128e-20)
(1.18537 0.221485 -2.22937e-20)
(1.24204 0.231085 -2.75609e-20)
(1.27456 0.229976 1.02347e-20)
(1.28885 0.219693 3.52911e-20)
(0.16827 0.00556496 2.38056e-21)
(0.43503 0.0378972 -8.9004e-21)
(0.661543 0.0922119 -2.77182e-20)
(0.849031 0.144314 1.45108e-20)
(0.998876 0.190264 -6.51304e-21)
(1.11246 0.223806 -2.46501e-20)
(1.19282 0.243673 -1.67828e-20)
(1.24449 0.250307 1.86175e-20)
(1.27278 0.245946 -3.18708e-21)
(1.28389 0.233156 -8.14154e-22)
(0.176074 0.0122001 4.50044e-21)
(0.450572 0.0538884 -7.3991e-21)
(0.679743 0.114114 -3.09047e-20)
(0.866424 0.169335 2.03546e-20)
(1.01302 0.215862 -1.14145e-20)
(1.12199 0.24806 -2.63702e-20)
(1.19732 0.265309 -1.002e-20)
(1.24431 0.268753 1.91292e-20)
(1.26883 0.261058 -4.40585e-21)
(1.27722 0.245729 -1.46079e-21)
(0.183305 0.019379 -7.23412e-20)
(0.464654 0.0708038 -5.0881e-20)
(0.69577 0.136824 -3.54963e-20)
(0.881109 0.194821 5.5571e-20)
(1.02416 0.241479 7.1253e-20)
(1.12847 0.271918 7.58433e-20)
(1.19895 0.28624 -1.49881e-20)
(1.24164 0.286317 -2.22195e-20)
(1.26286 0.275251 4.17352e-21)
(1.26899 0.257389 2.31113e-20)
(0.189937 0.0270531 1.66552e-19)
(0.47718 0.0885142 1.46394e-19)
(0.709517 0.160158 9.08535e-20)
(0.893015 0.220559 -7.01946e-20)
(1.03228 0.266904 -6.57902e-20)
(1.13195 0.295199 -1.23006e-19)
(1.19784 0.306327 -2.49852e-20)
(1.23663 0.302906 -3.92278e-20)
(1.25503 0.288471 -9.39035e-21)
(1.25936 0.268115 -4.54868e-20)
(0.195903 0.0351672 -1.70742e-19)
(0.488024 0.106879 -4.02816e-20)
(0.720871 0.183922 -1.40858e-19)
(0.902074 0.246331 -1.19106e-20)
(1.03739 0.291931 6.86343e-20)
(1.13252 0.317726 -2.32285e-20)
(1.19412 0.325442 9.20236e-20)
(1.22943 0.318438 3.82859e-20)
(1.2455 0.300672 -3.13076e-20)
(1.24846 0.277892 5.19083e-20)
(0.201128 0.0436571 1.26312e-19)
(0.497066 0.125744 -6.20786e-21)
(0.729729 0.207908 9.32758e-20)
(0.908242 0.271914 2.94753e-20)
(1.03951 0.316353 -2.46126e-20)
(1.13026 0.339335 2.01992e-20)
(1.18791 0.343464 -1.22507e-20)
(1.2202 0.332838 -4.27133e-20)
(1.23441 0.311813 3.08706e-20)
(1.23643 0.286699 -1.25851e-20)
(0.205545 0.0524513 -4.65938e-20)
(0.504206 0.144942 -1.80639e-21)
(0.736019 0.231902 5.42611e-20)
(0.911498 0.297086 -1.37044e-20)
(1.03869 0.339971 6.6304e-20)
(1.12527 0.359867 1.10713e-19)
(1.17936 0.360284 -6.12312e-20)
(1.20909 0.34604 5.99617e-20)
(1.22191 0.321859 -3.13389e-20)
(1.22339 0.29452 -1.01527e-20)
(0.209096 0.0614709 1.10593e-19)
(0.509364 0.164297 6.7964e-20)
(0.739691 0.255686 -3.99837e-20)
(0.911854 0.321622 -6.31161e-20)
(1.035 0.36259 1.72498e-20)
(1.11768 0.379175 3.78604e-20)
(1.16861 0.375804 1.05566e-20)
(1.19625 0.357985 1.0182e-20)
(1.20816 0.330786 5.11473e-20)
(1.20942 0.30134 -5.90934e-21)
(0.211732 0.0706311 -2.97319e-19)
(0.512478 0.183626 -4.28464e-20)
(0.740723 0.279035 -1.98589e-20)
(0.909344 0.345305 8.45023e-20)
(1.02854 0.384027 -2.24393e-19)
(1.10761 0.397121 -1.18478e-19)
(1.15582 0.389932 1.73852e-20)
(1.18184 0.368613 -1.61362e-20)
(1.19326 0.338568 -2.77092e-20)
(1.19468 0.307147 -6.72899e-21)
(0.213415 0.0798415 1.10711e-19)
(0.513507 0.202738 -2.9749e-20)
(0.739117 0.301728 -1.02217e-19)
(0.904027 0.367921 3.6478e-20)
(1.01941 0.404105 7.90193e-20)
(1.09523 0.41358 6.77228e-20)
(1.14115 0.402591 2.13236e-20)
(1.16599 0.377888 4.16599e-20)
(1.17731 0.345166 3.75143e-21)
(1.17927 0.311929 3.00739e-20)
(0.214113 0.0890075 1.05829e-19)
(0.512433 0.221441 -1.5197e-19)
(0.7349 0.323543 2.03435e-19)
(0.895987 0.389264 -7.6276e-20)
(1.00776 0.42266 -5.32735e-20)
(1.08068 0.428436 2.3971e-20)
(1.12475 0.413708 -9.42636e-22)
(1.14885 0.385771 -2.9259e-20)
(1.16044 0.350565 1.28169e-20)
(1.16326 0.315664 -3.33433e-20)
(0.21381 0.0980316 -1.44717e-19)
(0.509259 0.239541 9.60038e-20)
(0.728125 0.344263 -1.48948e-19)
(0.885329 0.409136 8.23825e-20)
(0.99371 0.43954 1.09464e-19)
(1.06412 0.441587 2.8508e-21)
(1.10679 0.423223 -2.55843e-20)
(1.13057 0.39223 -2.71472e-20)
(1.14278 0.35475 1.15081e-20)
(1.14674 0.318335 -5.61479e-21)
(0.212498 0.106814 7.3867e-20)
(0.504009 0.256845 8.09379e-20)
(0.718869 0.36368 -2.30066e-20)
(0.872181 0.427353 -5.47879e-21)
(0.977439 0.454606 -5.4143e-20)
(1.04574 0.452941 -3.84763e-20)
(1.08743 0.431085 -8.20809e-21)
(1.11127 0.39724 7.96611e-21)
(1.12441 0.357706 4.01718e-20)
(1.12979 0.319923 -4.70984e-20)
(0.21018 0.115256 1.41987e-19)
(0.496728 0.273163 5.48232e-20)
(0.707231 0.381592 1.07091e-20)
(0.856687 0.443742 -4.92911e-21)
(0.959115 0.467731 2.44118e-20)
(1.02571 0.462419 1.45806e-21)
(1.06683 0.437251 3.77816e-20)
(1.09108 0.400781 5.94568e-20)
(1.10544 0.359424 -1.46999e-19)
(1.11247 0.320412 2.78273e-19)
(0.206873 0.123258 -8.25487e-20)
(0.487487 0.288313 -9.22231e-20)
(0.693332 0.397809 4.64348e-20)
(0.839011 0.458142 -1.30229e-20)
(0.938923 0.478802 -3.65012e-20)
(1.00421 0.469953 -3.35056e-20)
(1.04515 0.441686 2.56046e-20)
(1.07015 0.40284 -4.52722e-20)
(1.08595 0.359899 1.04621e-19)
(1.09486 0.319781 -5.48283e-20)
(0.2026 0.13072 -2.00348e-20)
(0.476374 0.302119 2.31632e-20)
(0.677316 0.412153 -2.33808e-20)
(0.819333 0.470409 -3.25525e-21)
(0.917056 0.487721 7.72556e-20)
(0.981437 0.475487 -2.33221e-20)
(1.02257 0.444366 -2.36626e-20)
(1.0486 0.403412 -8.81497e-20)
(1.06601 0.359132 -1.37729e-19)
(1.077 0.318011 -1.28043e-20)
(0.197402 0.137549 2.27043e-21)
(0.463497 0.314415 -2.30904e-20)
(0.659341 0.424463 8.57302e-21)
(0.797845 0.480416 -4.45701e-20)
(0.893715 0.494405 -5.00425e-20)
(0.95757 0.478976 1.40877e-19)
(0.999243 0.445274 2.644e-20)
(1.02656 0.402498 1.06279e-19)
(1.04571 0.357129 -8.68659e-20)
(1.05895 0.31508 1.54051e-19)
(0.191333 0.143658 -4.0384e-20)
(0.448978 0.325044 6.63953e-20)
(0.639587 0.434589 -7.35949e-20)
(0.774753 0.488049 8.91441e-20)
(0.869109 0.498783 -6.81543e-20)
(0.932804 0.480386 -2.77504e-19)
(0.975336 0.444401 -2.62632e-20)
(1.00417 0.400106 9.90161e-20)
(1.02513 0.353905 2.75738e-19)
(1.04071 0.310966 -1.0489e-19)
(0.184452 0.148967 9.49448e-20)
(0.432962 0.333869 -5.24599e-20)
(0.618246 0.442403 8.70009e-20)
(0.750272 0.493214 -8.05931e-20)
(0.84345 0.500803 8.00067e-20)
(0.907333 0.479696 2.55731e-19)
(0.951016 0.441748 -6.26266e-20)
(0.981537 0.396253 -1.53571e-19)
(1.00431 0.349475 -1.01845e-20)
(1.02233 0.305638 -1.27606e-19)
(0.176833 0.153401 -1.35448e-19)
(0.415612 0.340767 5.11305e-20)
(0.595528 0.447793 -1.68082e-19)
(0.724626 0.495836 7.99245e-20)
(0.816953 0.500425 -2.75184e-19)
(0.881349 0.476895 -2.31965e-19)
(0.926448 0.437321 1.9376e-19)
(0.958814 0.390963 4.51504e-20)
(0.983345 0.343862 -1.99314e-19)
(1.00384 0.299037 2.27037e-19)
(0.168542 0.15688 3.20459e-19)
(0.397091 0.345621 -5.25973e-20)
(0.571643 0.450664 1.70199e-19)
(0.698043 0.495854 9.28635e-21)
(0.789834 0.497623 3.6136e-19)
(0.855044 0.471981 -1.1252e-19)
(0.901798 0.431137 1.53273e-19)
(0.93614 0.384271 -2.2305e-19)
(0.962396 0.337151 -3.55831e-19)
(0.985246 0.291323 -4.18861e-19)
(0.159603 0.159274 3.22387e-20)
(0.377544 0.348294 -2.20352e-19)
(0.546798 0.450918 5.05239e-21)
(0.670746 0.493216 4.36565e-20)
(0.762305 0.492382 -4.40919e-19)
(0.828605 0.464961 4.0767e-20)
(0.877227 0.423211 -5.46908e-19)
(0.913682 0.376204 1.99423e-19)
(0.941811 0.329499 4.36032e-19)
(0.966509 0.283115 4.54339e-19)
(0.150121 0.160522 -6.77885e-20)
(0.357183 0.348695 -8.81695e-20)
(0.521232 0.448494 -3.45289e-19)
(0.642973 0.487895 2.22933e-19)
(0.734581 0.484707 2.61728e-19)
(0.802214 0.455855 -5.41755e-20)
(0.852886 0.413566 7.8391e-20)
(0.891613 0.366738 3.3105e-21)
(0.921952 0.320783 2.80506e-19)
(0.949139 0.275505 -8.95744e-19)
(0.140268 0.16065 -3.82994e-19)
(0.336262 0.346821 2.98796e-19)
(0.495217 0.443391 -1.15076e-20)
(0.61498 0.479907 -3.45583e-19)
(0.706883 0.474624 -3.31381e-19)
(0.776052 0.444697 2.63303e-20)
(0.828918 0.402231 2.14016e-19)
(0.870017 0.35589 -3.33105e-19)
(0.902654 0.310877 -6.35247e-19)
(0.931954 0.267248 8.55328e-19)
(0.130157 0.159639 1.74704e-19)
(0.314992 0.34265 3.50926e-20)
(0.468995 0.435611 3.42665e-19)
(0.587004 0.469275 2.19392e-19)
(0.679421 0.462171 -3.18879e-19)
(0.750293 0.431527 5.58613e-19)
(0.805458 0.389242 -4.41086e-19)
(0.848988 0.3437 6.80543e-19)
(0.883949 0.299839 5.8237e-19)
(0.915207 0.257994 -4.56236e-19)
(0.119888 0.157464 -4.64781e-19)
(0.293581 0.336169 -5.40031e-21)
(0.442805 0.425166 -1.34294e-19)
(0.559277 0.456034 -2.05507e-19)
(0.652397 0.447396 4.6888e-19)
(0.725105 0.416396 -5.98818e-19)
(0.782639 0.374647 4.83585e-19)
(0.828626 0.33021 -2.18193e-19)
(0.865919 0.287737 -2.45066e-19)
(0.899064 0.247766 3.69994e-19)
(0.10957 0.154118 9.24105e-19)
(0.272241 0.32739 -7.58928e-20)
(0.416886 0.412091 8.90486e-21)
(0.532027 0.440239 1.357e-19)
(0.62601 0.430362 4.38018e-19)
(0.70065 0.399366 -1.35092e-19)
(0.76059 0.358497 1.94621e-19)
(0.809031 0.315459 -2.56637e-19)
(0.848638 0.274606 3.42259e-19)
(0.883609 0.236623 2.06187e-19)
(0.0993131 0.149605 -1.00149e-18)
(0.251181 0.316344 -3.89765e-19)
(0.391473 0.396446 3.22205e-19)
(0.505475 0.421962 3.31968e-19)
(0.600448 0.411145 -1.91332e-19)
(0.677082 0.380506 4.08556e-19)
(0.739433 0.340853 4.17615e-20)
(0.790299 0.299493 -3.31419e-19)
(0.832174 0.260479 2.34582e-20)
(0.86891 0.224595 1.4723e-19)
(0.0892269 0.143942 3.452e-19)
(0.23061 0.303085 3.40884e-19)
(0.366793 0.378308 -5.84681e-20)
(0.479836 0.401293 -3.67237e-19)
(0.575894 0.389835 -4.92562e-20)
(0.654547 0.359898 -5.28958e-19)
(0.719283 0.321781 1.95617e-19)
(0.772518 0.282365 1.05811e-19)
(0.816594 0.245394 2.97068e-19)
(0.855029 0.211712 -8.87195e-19)
(0.0794206 0.137158 2.33065e-19)
(0.210731 0.287686 -3.37114e-19)
(0.343069 0.357773 -1.54427e-19)
(0.455314 0.378339 -6.93947e-20)
(0.552522 0.366532 -2.59197e-19)
(0.633186 0.337631 5.98324e-19)
(0.700251 0.301356 -3.69015e-19)
(0.755775 0.264132 -3.2569e-19)
(0.801963 0.229395 -3.01906e-19)
(0.842021 0.198012 3.19831e-19)
(0.0700005 0.129294 -1.36937e-19)
(0.191738 0.270236 2.32192e-19)
(0.32051 0.334959 1.62083e-19)
(0.432104 0.353219 2.63605e-19)
(0.530494 0.341351 5.67618e-19)
(0.613129 0.313803 -5.22472e-19)
(0.682436 0.279657 -3.13129e-19)
(0.740146 0.244859 4.2838e-19)
(0.788339 0.212534 1.70397e-20)
(0.829936 0.18354 1.99998e-21)
(0.0610692 0.1204 -1.98828e-19)
(0.173819 0.250848 2.89326e-19)
(0.299318 0.309997 -1.48105e-20)
(0.410389 0.326072 -3.22009e-19)
(0.509963 0.314415 -2.58956e-19)
(0.594497 0.288519 6.4741e-19)
(0.665935 0.256772 5.31453e-19)
(0.725705 0.224615 2.18824e-19)
(0.775778 0.194865 -1.26983e-19)
(0.818817 0.168348 -1.00316e-19)
(0.0527242 0.110539 2.06747e-19)
(0.15715 0.229646 -5.28821e-20)
(0.279677 0.28304 -6.38806e-19)
(0.390337 0.297045 2.04193e-19)
(0.491068 0.285858 2.01879e-19)
(0.577401 0.261893 -8.42622e-20)
(0.650832 0.232794 -2.6987e-19)
(0.712518 0.203476 -5.24606e-19)
(0.76433 0.176449 -1.34671e-19)
(0.808704 0.15249 -1.21721e-19)
(0.0450568 0.0997826 1.34143e-19)
(0.141893 0.206776 4.24253e-19)
(0.261762 0.254252 -2.71804e-21)
(0.372105 0.266301 -4.87533e-19)
(0.47394 0.255824 -7.74758e-19)
(0.561943 0.234047 -3.89764e-19)
(0.637207 0.207821 2.48432e-19)
(0.700644 0.181521 6.20325e-19)
(0.754039 0.157351 -3.84429e-19)
(0.799631 0.136025 4.65628e-19)
(0.0381514 0.0882123 2.66547e-19)
(0.128198 0.182396 -3.35209e-19)
(0.245728 0.223814 2.83758e-19)
(0.355834 0.234015 3.77884e-19)
(0.458693 0.224466 7.69257e-19)
(0.548215 0.205108 8.48966e-20)
(0.625129 0.181958 -3.36764e-19)
(0.690136 0.158835 7.15711e-20)
(0.744946 0.137643 4.65083e-19)
(0.791627 0.119016 -1.33787e-19)
(0.0320837 0.0759182 -2.98109e-19)
(0.1162 0.156678 -1.26855e-20)
(0.231717 0.191919 -3.21657e-19)
(0.341649 0.200369 4.7871e-20)
(0.44543 0.191945 -3.52893e-19)
(0.536296 0.175209 -1.78276e-19)
(0.614661 0.155313 1.46947e-19)
(0.681042 0.135507 -5.03578e-19)
(0.737086 0.117396 -1.69468e-19)
(0.784719 0.101529 6.37163e-20)
(0.0269207 0.0629975 -2.28546e-19)
(0.106016 0.129806 1.95341e-19)
(0.219849 0.15877 1.68823e-19)
(0.329659 0.165557 7.86369e-20)
(0.434241 0.158426 -4.93302e-20)
(0.526257 0.144489 4.56599e-19)
(0.605856 0.127999 1.72833e-19)
(0.673402 0.11163 1.80062e-19)
(0.730489 0.0966895 1.54702e-19)
(0.778929 0.0836341 -1.11625e-19)
(0.0227195 0.0495542 2.41923e-19)
(0.0977464 0.101975 -3.10768e-19)
(0.210229 0.124583 1.37221e-19)
(0.319956 0.129781 -9.33526e-20)
(0.425199 0.124085 2.27157e-19)
(0.518155 0.113091 -3.82538e-19)
(0.598758 0.100134 7.33596e-20)
(0.667249 0.0872988 -2.31659e-20)
(0.725181 0.0756021 -1.12384e-19)
(0.774275 0.0654018 7.906e-21)
(0.0195266 0.0356977 -8.28667e-20)
(0.0914715 0.0733874 1.61061e-19)
(0.20294 0.089578 -1.41372e-20)
(0.312613 0.0932467 1.69892e-21)
(0.418364 0.0890969 -3.33946e-20)
(0.512037 0.0811613 1.74325e-19)
(0.593403 0.0718353 -2.39354e-19)
(0.662611 0.0626123 5.98776e-20)
(0.721183 0.0542163 -9.67735e-20)
(0.770771 0.0469056 7.57382e-20)
(0.0173778 0.0215416 5.45935e-21)
(0.0872534 0.0442543 8.70614e-21)
(0.198046 0.0539847 2.96649e-20)
(0.307686 0.0561679 -4.79475e-20)
(0.413783 0.0536452 -8.15246e-20)
(0.507939 0.0488505 -2.53461e-20)
(0.589819 0.0432264 2.33047e-20)
(0.659508 0.0376703 -6.37321e-20)
(0.718509 0.0326163 9.35328e-21)
(0.76843 0.0282197 1.00593e-19)
(0.0162971 0.00720184 3.8243e-21)
(0.0851337 0.0147894 -1.42793e-20)
(0.195587 0.0180351 4.75992e-20)
(0.305214 0.0187598 3.54292e-20)
(0.411485 0.0179134 5.75452e-20)
(0.505885 0.0163096 8.00246e-21)
(0.588022 0.0144301 2.44769e-20)
(0.657953 0.0125743 4.35774e-20)
(0.717169 0.0108868 -8.69962e-21)
(0.767257 0.00941957 -2.3793e-21)
(0.0162971 -0.00720184 7.73048e-21)
(0.0851337 -0.0147894 -1.26159e-20)
(0.195587 -0.0180351 5.07529e-20)
(0.305214 -0.0187599 2.65245e-20)
(0.411485 -0.0179134 5.65061e-20)
(0.505885 -0.0163096 1.34178e-20)
(0.588022 -0.0144301 2.12472e-20)
(0.657953 -0.0125743 5.25516e-20)
(0.717169 -0.0108868 -1.3686e-20)
(0.767257 -0.00941958 -5.58068e-21)
(0.0173778 -0.0215416 1.30704e-21)
(0.0872534 -0.0442543 1.8768e-20)
(0.198046 -0.0539847 3.15399e-20)
(0.307686 -0.0561679 -6.21992e-20)
(0.413783 -0.0536452 -7.47648e-20)
(0.507939 -0.0488506 -2.5922e-21)
(0.589819 -0.0432264 -2.83381e-21)
(0.659508 -0.0376703 -6.25571e-20)
(0.718509 -0.0326163 3.08267e-20)
(0.76843 -0.0282197 1.00253e-19)
(0.0195266 -0.0356977 -8.38329e-20)
(0.0914715 -0.0733874 1.54199e-19)
(0.20294 -0.089578 -6.52691e-21)
(0.312613 -0.0932467 -7.11386e-21)
(0.418364 -0.0890969 3.07724e-20)
(0.512037 -0.0811613 8.23602e-20)
(0.593403 -0.0718353 -1.84585e-19)
(0.662611 -0.0626123 2.09923e-20)
(0.721183 -0.0542163 -1.63002e-20)
(0.770771 -0.0469056 1.56019e-20)
(0.0227195 -0.0495542 1.90173e-19)
(0.0977464 -0.101975 -3.08237e-19)
(0.210229 -0.124583 1.56505e-19)
(0.319956 -0.129781 -4.85944e-20)
(0.425199 -0.124085 1.58423e-19)
(0.518155 -0.113091 -3.21047e-19)
(0.598758 -0.100134 6.2462e-20)
(0.667249 -0.0872988 -4.81636e-20)
(0.725181 -0.0756021 -1.60669e-19)
(0.774275 -0.0654019 8.03321e-20)
(0.0269207 -0.0629975 -1.90894e-19)
(0.106016 -0.129806 1.98594e-19)
(0.219849 -0.15877 1.50099e-19)
(0.329659 -0.165557 1.00115e-19)
(0.434241 -0.158426 -5.52562e-20)
(0.526257 -0.144489 4.26656e-19)
(0.605856 -0.128 2.85332e-19)
(0.673402 -0.11163 1.05622e-19)
(0.730489 -0.0966895 2.0709e-19)
(0.778929 -0.0836341 -1.25011e-19)
(0.0320837 -0.0759182 -2.64234e-19)
(0.1162 -0.156678 -2.99228e-20)
(0.231717 -0.191919 -2.58409e-19)
(0.341649 -0.200369 9.34815e-21)
(0.44543 -0.191945 -4.0411e-19)
(0.536296 -0.175209 -2.16565e-19)
(0.614661 -0.155313 2.30124e-19)
(0.681042 -0.135507 -3.94479e-19)
(0.737086 -0.117396 -2.12037e-19)
(0.784719 -0.101529 -7.63982e-20)
(0.0381514 -0.0882123 2.69812e-19)
(0.128198 -0.182396 -2.42045e-19)
(0.245728 -0.223814 2.24948e-19)
(0.355834 -0.234015 4.29628e-19)
(0.458693 -0.224466 7.10486e-19)
(0.548215 -0.205108 1.38523e-19)
(0.625129 -0.181958 -3.1503e-19)
(0.690136 -0.158835 3.0504e-20)
(0.744946 -0.137643 4.732e-19)
(0.791627 -0.119016 -1.13887e-19)
(0.0450568 -0.0997826 2.05153e-19)
(0.141893 -0.206776 3.00887e-19)
(0.261762 -0.254252 -2.33817e-20)
(0.372105 -0.266301 -3.65776e-19)
(0.47394 -0.255824 -7.61811e-19)
(0.561943 -0.234047 -4.15461e-19)
(0.637207 -0.207821 3.60174e-20)
(0.700644 -0.181521 7.98872e-19)
(0.754039 -0.157351 -3.01404e-19)
(0.799631 -0.136025 3.28087e-19)
(0.0527242 -0.110539 2.36415e-19)