/*--------------------------------*- C++ -*----------------------------------*\
  =========                 |
  \\      /  F ield         | OpenFOAM: The Open Source CFD Toolbox
   \\    /   O peration     | Website:  https://openfoam.org
    \\  /    A nd           | Version:  7
     \\/     M anipulation  |
\*---------------------------------------------------------------------------*/
FoamFile
{
    version     2.0;
    format      ascii;
    class       volScalarField;
    location    "15";
    object      p;
}
// * * * * * * * * * * * * * * * * * * * * * * * * * * * * * * * * * * * * * //

dimensions      [0 2 -2 0 0 0 0];

internalField   nonuniform List<scalar> 
2625
(
1.04735
0.950938
0.916779
0.87141
0.838548
0.806848
0.778182
1.04735
0.950938
0.916779
0.87141
0.838548
0.806848
0.778182
0.750651
0.724117
0.698249
0.673009
0.648405
0.624501
0.601368
0.579075
0.557676
0.537206
0.517683
0.499121
0.481483
1.04616
0.949856
0.915738
0.870429
0.837622
0.805979
0.77737
0.749896
0.723416
0.697601
0.67241
0.647852
0.62399
0.600897
0.57864
0.557273
0.536834
0.517338
0.498803
0.481176
1.0438
0.947702
0.913663
0.868474
0.835772
0.804243
0.775748
0.748386
0.722016
0.696305
0.671212
0.646746
0.622969
0.599954
0.577769
0.556468
0.536088
0.516648
0.498167
0.480561
1.04028
0.944477
0.910556
0.865543
0.833001
0.801641
0.773315
0.746122
0.719915
0.694361
0.669415
0.645087
0.621437
0.59854
0.576462
0.55526
0.534971
0.515613
0.497214
0.47964
1.03559
0.940183
0.906421
0.861643
0.829311
0.798178
0.770077
0.743107
0.717118
0.691772
0.667023
0.642877
0.619397
0.596656
0.574721
0.553651
0.533481
0.514235
0.495943
0.478412
1.02974
0.934829
0.901265
0.856779
0.82471
0.793858
0.766037
0.739346
0.713628
0.688541
0.664036
0.640119
0.616851
0.594304
0.572548
0.551642
0.531622
0.512514
0.494357
0.476879
1.02275
0.928425
0.895096
0.85096
0.819204
0.788688
0.761202
0.734844
0.70945
0.684673
0.660461
0.636817
0.613801
0.591487
0.569945
0.549235
0.529395
0.510453
0.492456
0.475042
1.01463
0.920979
0.887925
0.844194
0.812802
0.782676
0.755578
0.729607
0.704589
0.680172
0.6563
0.632973
0.610252
0.588209
0.566916
0.546434
0.526802
0.508053
0.490244
0.472902
1.00539
0.912507
0.879764
0.836493
0.805515
0.775831
0.749174
0.723643
0.699052
0.675044
0.651559
0.628593
0.606206
0.584472
0.563462
0.54324
0.523846
0.505316
0.487721
0.470462
0.995043
0.90302
0.870626
0.827869
0.797353
0.768164
0.742
0.71696
0.692847
0.669297
0.646244
0.623682
0.60167
0.580281
0.559588
0.539657
0.52053
0.502246
0.484891
0.467724
0.983608
0.892535
0.860526
0.818337
0.78833
0.759687
0.734066
0.709568
0.685982
0.662937
0.640361
0.618246
0.596648
0.57564
0.555298
0.535689
0.516856
0.498844
0.481756
0.464689
0.971104
0.881068
0.84948
0.807911
0.77846
0.750411
0.725383
0.701476
0.678465
0.655973
0.633918
0.612291
0.591145
0.570555
0.550597
0.53134
0.51283
0.495116
0.47832
0.461361
0.95755
0.86864
0.837507
0.796609
0.767758
0.740353
0.715965
0.692697
0.670309
0.648413
0.626923
0.605825
0.585169
0.565031
0.545489
0.526614
0.508454
0.491063
0.474584
0.457742
0.85527
0.824626
0.784448
0.756242
0.729526
0.705825
0.683243
0.661522
0.640267
0.619385
0.598854
0.578726
0.559074
0.539979
0.521517
0.503733
0.486689
0.470554
0.453834
0.840979
0.810858
0.771449
0.743929
0.717947
0.694978
0.673126
0.652118
0.631547
0.611312
0.591388
0.571823
0.552691
0.534075
0.516052
0.498671
0.482
0.466232
0.449642
0.825791
0.796225
0.757632
0.730838
0.705634
0.68344
0.662362
0.642108
0.622263
0.602715
0.583434
0.564467
0.545889
0.527781
0.510226
0.493273
0.476998
0.461622
0.445168
0.809731
0.780752
0.743018
0.716991
0.692606
0.671228
0.650965
0.631507
0.612427
0.593604
0.575003
0.556669
0.538674
0.521104
0.504044
0.487545
0.471689
0.456729
0.440415
0.792824
0.764461
0.727633
0.702409
0.678882
0.658359
0.638952
0.620328
0.602051
0.58399
0.566105
0.548435
0.531055
0.514052
0.497512
0.481491
0.466076
0.451556
0.435386
0.775098
0.747381
0.711499
0.687114
0.664483
0.644853
0.626339
0.608587
0.59115
0.573886
0.556749
0.539776
0.523041
0.506631
0.490638
0.475117
0.460166
0.446109
0.430087
0.756581
0.729538
0.694642
0.67113
0.649431
0.630729
0.613143
0.596299
0.579736
0.563304
0.546947
0.530701
0.514638
0.498848
0.483426
0.46843
0.453962
0.440391
0.424518
0.737302
0.710961
0.67709
0.654481
0.633749
0.616008
0.599384
0.583481
0.567826
0.552256
0.536711
0.52122
0.505858
0.490713
0.475885
0.461434
0.44747
0.434406
0.418686
0.717292
0.691678
0.658869
0.637195
0.617459
0.600711
0.58508
0.570149
0.555433
0.540756
0.526051
0.511345
0.496708
0.482233
0.468022
0.454137
0.440696
0.42816
0.412592
0.671722
0.640009
0.619297
0.600587
0.584859
0.570252
0.556323
0.542574
0.528819
0.514982
0.501085
0.487199
0.473416
0.459843
0.446544
0.433644
0.421658
0.406241
0.651122
0.620538
0.600814
0.583157
0.568477
0.554919
0.542019
0.529265
0.516459
0.503515
0.490453
0.47734
0.464272
0.451358
0.438663
0.426321
0.414903
0.399635
0.629911
0.600488
0.581776
0.565196
0.551588
0.539104
0.527258
0.515524
0.50369
0.491664
0.47946
0.467143
0.45481
0.442573
0.4305
0.418731
0.4079
0.392779
0.608123
0.579889
0.562211
0.54673
0.534215
0.522828
0.512058
0.501367
0.490529
0.479444
0.468118
0.456618
0.445039
0.433497
0.422062
0.410881
0.400654
0.385674
0.585791
0.558773
0.542148
0.527787
0.516385
0.506114
0.496441
0.486813
0.476992
0.466867
0.456441
0.445777
0.434969
0.424139
0.413357
0.402777
0.39317
0.378325
0.562949
0.537173
0.521619
0.508395
0.498122
0.488985
0.480426
0.47188
0.463095
0.45395
0.444441
0.43463
0.424611
0.414507
0.404392
0.394424
0.385451
0.370734
0.515121
0.500654
0.488583
0.479453
0.471464
0.464035
0.456588
0.448855
0.440706
0.432132
0.42319
0.413974
0.404612
0.395174
0.385829
0.377502
0.362903
0.492652
0.479285
0.468379
0.460404
0.453576
0.44729
0.440955
0.434289
0.427152
0.419527
0.411469
0.403071
0.394461
0.385713
0.376998
0.369327
0.354833
0.469799
0.457543
0.447813
0.441003
0.435345
0.430213
0.425002
0.419415
0.413303
0.406641
0.39948
0.391911
0.384065
0.376016
0.367937
0.360929
0.346525
0.446597
0.435462
0.426915
0.421276
0.416797
0.412826
0.408748
0.404251
0.399175
0.393488
0.387235
0.380507
0.373435
0.366091
0.358655
0.352312
0.337981
0.423081
0.413074
0.405716
0.401253
0.397956
0.395153
0.392215
0.388816
0.384785
0.380082
0.374748
0.36887
0.362581
0.35595
0.349158
0.343479
0.329199
0.390412
0.384247
0.380961
0.378848
0.377216
0.375423
0.373129
0.37015
0.366439
0.362032
0.357014
0.351514
0.345601
0.339455
0.334431
0.320177
0.367509
0.362538
0.360428
0.3595
0.359039
0.358393
0.357207
0.355287
0.352575
0.349102
0.344949
0.340246
0.335055
0.329557
0.325172
0.31092
0.344398
0.340619
0.339684
0.339937
0.340646
0.341147
0.341071
0.340212
0.338504
0.335971
0.332691
0.328789
0.324325
0.319475
0.315705
0.301438
0.321114
0.318524
0.318757
0.320186
0.322061
0.323707
0.32474
0.324944
0.324242
0.322654
0.320252
0.317157
0.313425
0.309226
0.306034
0.2917
0.296289
0.29768
0.300276
0.303309
0.306094
0.308234
0.3095
0.309807
0.309165
0.307645
0.305362
0.302368
0.298825
0.296108
0.281581
0.273949
0.276485
0.280236
0.284416
0.288333
0.291574
0.293898
0.295212
0.29552
0.294885
0.293419
0.291175
0.288289
0.285853
0.271245
0.251484
0.255166
0.260068
0.265392
0.270435
0.274774
0.278155
0.280476
0.281732
0.281985
0.281342
0.279866
0.277649
0.275545
0.262406
0.233656
0.239737
0.24622
0.2524
0.257841
0.262283
0.265612
0.26782
0.268964
0.269149
0.268458
0.266948
0.265836
0.25896
0.212224
0.219426
0.227024
0.234307
0.240827
0.246312
0.250639
0.253792
0.255824
0.256838
0.256938
0.256144
0.255492
0.25248
0.190817
0.199109
0.207796
0.21616
0.223742
0.230256
0.235571
0.239663
0.242581
0.244421
0.245307
0.245242
0.244845
0.244522
0.178786
0.188543
0.197972
0.2066
0.214133
0.220427
0.225451
0.229249
0.231912
0.233576
0.234257
0.234197
0.235899
0.158485
0.16929
0.179764
0.189422
0.197959
0.205222
0.211169
0.215841
0.219324
0.221758
0.223189
0.223566
0.226845
0.150064
0.16156
0.17223
0.181755
0.189972
0.196833
0.202371
0.206667
0.209864
0.212039
0.212907
0.217469
0.130887
0.143383
0.155042
0.165537
0.174695
0.182458
0.188852
0.193955
0.197907
0.200817
0.202207
0.207848
0.125253
0.137879
0.149325
0.159407
0.168058
0.175298
0.1812
0.1859
0.189533
0.191472
0.198044
0.107192
0.120761
0.133136
0.144124
0.153649
0.161724
0.168414
0.173855
0.178202
0.180707
0.188105
0.103707
0.116989
0.128863
0.139246
0.148142
0.155612
0.161785
0.166836
0.169921
0.178068
0.0867356
0.1009
0.113641
0.124864
0.134567
0.142806
0.149702
0.155448
0.159122
0.167958
0.0848885
0.0984734
0.110518
0.121014
0.130008
0.137618
0.144048
0.148319
0.157797
0.068971
0.0833765
0.0962235
0.107495
0.117232
0.125546
0.132651
0.137521
0.147603
0.0683663
0.0819946
0.0940242
0.104491
0.113497
0.121266
0.126737
0.137391
0.0678459
0.0806155
0.0917966
0.101483
0.109906
0.115976
0.127173
0.0537918
0.0672819
0.0791611
0.0895155
0.0985806
0.105248
0.116963
0.0540362
0.0665967
0.0776051
0.0873006
0.0945608
0.106769
0.0541149
0.0657628
0.0760759
0.083924
0.0966013
0.053999
0.0649164
0.0733455
0.0864695
0.0538312
0.0628336
0.0763818
0.0523962
0.0663465
0.0563713
0.279776
0.279909
0.280875
0.282098
0.283809
0.285799
0.288103
0.290631
0.293358
0.296224
0.299184
0.302183
0.305165
0.308073
0.310843
0.313412
0.315709
0.317665
0.319206
0.320257
0.320742
0.320584
0.319708
0.318045
0.315529
0.312125
0.30778
0.302485
0.297899
0.289306
0.280608
0.280736
0.281728
0.282987
0.284751
0.286805
0.289187
0.291806
0.294638
0.297624
0.30072
0.303873
0.30703
0.310133
0.313122
0.315934
0.318503
0.320759
0.322631
0.324046
0.32493
0.325208
0.324809
0.323667
0.321724
0.318957
0.315325
0.310833
0.307232
0.299677
0.28141
0.281501
0.282485
0.283741
0.285511
0.287578
0.289979
0.292622
0.295484
0.298506
0.301644
0.304847
0.308062
0.311233
0.314303
0.31721
0.319892
0.322283
0.324317
0.325926
0.327045
0.327606
0.32755
0.326821
0.325371
0.323188
0.320224
0.316415
0.313347
0.30617
0.282199
0.282264
0.283247
0.284508
0.286295
0.288386
0.29082
0.293505
0.296418
0.299502
0.302714
0.306003
0.30932
0.312611
0.31582
0.318889
0.321758
0.324367
0.326652
0.328551
0.330001
0.330943
0.331319
0.331081
0.330182
0.328609
0.326307
0.32318
0.320736
0.314289
0.282975
0.283019
0.284008
0.285279
0.287089
0.289211
0.291687
0.294423
0.297399
0.300557
0.303856
0.307248
0.310684
0.314113
0.317481
0.320732
0.323811
0.326658
0.329213
0.331417
0.333211
0.334538
0.335344
0.335581
0.335205
0.334202
0.332514
0.330043
0.328214
0.322446
0.283735
0.28376
0.284756
0.286038
0.28787
0.290023
0.292539
0.295326
0.298362
0.301591
0.304975
0.308466
0.312016
0.315576
0.319096
0.322521
0.325797
0.328869
0.331679
0.334171
0.336289
0.337977
0.339187
0.33987
0.339985
0.339518
0.33841
0.336567
0.335312
0.330221
0.284478
0.284486
0.285488
0.28678
0.288634
0.290817
0.293372
0.296207
0.2993
0.302599
0.306063
0.309648
0.313308
0.316995
0.320659
0.324251
0.327718
0.331007
0.334063
0.336832
0.339262
0.341301
0.3429
0.344015
0.344605
0.344656
0.344105
0.342866
0.342164
0.337765
0.285204
0.285197
0.286204
0.287507
0.289382
0.291595
0.294187
0.297069
0.300219
0.303585
0.307129
0.310806
0.314573
0.318384
0.322191
0.325947
0.329601
0.333102
0.336399
0.339441
0.342176
0.344556
0.346535
0.348069
0.349119
0.34967
0.349655
0.348998
0.348831
0.345116
0.285912
0.285891
0.286906
0.288219
0.290116
0.292357
0.294986
0.297914
0.301119
0.304551
0.308173
0.311941
0.315813
0.319746
0.323693
0.32761
0.331447
0.335156
0.338689
0.341996
0.345029
0.347741
0.350088
0.352028
0.353522
0.354553
0.355053
0.354958
0.355306
0.352265
0.286603
0.28657
0.287591
0.288916
0.290833
0.293102
0.295768
0.29874
0.302
0.305497
0.309194
0.313051
0.317026
0.321078
0.325163
0.329236
0.333252
0.337164
0.340926
0.344492
0.347814
0.350848
0.353551
0.355884
0.357806
0.3593
0.360298
0.360743
0.361591
0.359212
0.287275
0.287231
0.28826
0.289597
0.291533
0.29383
0.296531
0.299548
0.302861
0.30642
0.310192
0.314136
0.318211
0.322379
0.326597
0.330823
0.335013
0.339123
0.343109
0.346925
0.350528
0.353875
0.356923
0.359635
0.361971
0.363913
0.365391
0.366358
0.367689
0.36596
0.287929
0.287876
0.288912
0.290257
0.292216
0.294539
0.297275
0.300335
0.3037
0.307321
0.311165
0.315193
0.319367
0.323648
0.327996
0.332371
0.336731
0.341033
0.345235
0.349295
0.353171
0.35682
0.360203
0.363281
0.366017
0.368391
0.370333
0.371805
0.373604
0.37251
0.288563
0.288503
0.289546
0.290904
0.292881
0.295231
0.298001
0.301102
0.304518
0.308199
0.312113
0.316223
0.320493
0.324884
0.329358
0.333878
0.338402
0.342891
0.347304
0.351601
0.35574
0.359682
0.363388
0.36682
0.369943
0.372733
0.375124
0.377083
0.379335
0.378861
0.289179
0.289112
0.290163
0.291532
0.293529
0.295904
0.298706
0.301848
0.305313
0.309052
0.313035
0.317225
0.321587
0.326085
0.330682
0.335342
0.340027
0.344697
0.349314
0.353839
0.358233
0.362458
0.366477
0.370251
0.373747
0.37694
0.379763
0.382193
0.384884
0.385015
0.289775
0.289702
0.290761
0.292141
0.294156
0.296557
0.299391
0.302573
0.306084
0.30988
0.31393
0.318197
0.322649
0.327251
0.331968
0.336764
0.341603
0.346448
0.351263
0.356009
0.36065
0.365148
0.369468
0.373573
0.377428
0.381009
0.384251
0.387134
0.39025
0.390971
0.29035
0.290274
0.29134
0.292731
0.294762
0.297189
0.300055
0.303275
0.306833
0.310683
0.314797
0.31914
0.323679
0.328381
0.333213
0.33814
0.343129
0.348144
0.353149
0.358109
0.362988
0.36775
0.37236
0.376783
0.380984
0.38494
0.388585
0.391905
0.395433
0.396726
0.290906
0.290826
0.291899
0.293301
0.295351
0.297801
0.300697
0.303954
0.307556
0.31146
0.315636
0.320051
0.324674
0.329473
0.334417
0.339471
0.344604
0.349783
0.354972
0.360137
0.365245
0.370261
0.375151
0.37988
0.384415
0.38873
0.392764
0.396506
0.400431
0.402281
0.291441
0.291358
0.292439
0.293852
0.29592
0.298398
0.301317
0.30461
0.308255
0.31221
0.316446
0.320931
0.325635
0.330528
0.335578
0.340755
0.346028
0.351363
0.356729
0.362093
0.367421
0.372681
0.377839
0.382862
0.387717
0.392379
0.396787
0.400934
0.405244
0.407632
0.291955
0.29187
0.292958
0.294382
0.296467
0.298979
0.301915
0.305241
0.308928
0.312932
0.317226
0.321778
0.326561
0.331543
0.336697
0.341992
0.347398
0.352884
0.35842
0.363974
0.369514
0.375007
0.380423
0.385728
0.390891
0.395885
0.400652
0.405188
0.409868
0.412779
0.292448
0.292362
0.293457
0.294892
0.296992
0.29949
0.302489
0.305848
0.309575
0.313626
0.317975
0.322593
0.32745
0.332519
0.337771
0.343179
0.348714
0.354345
0.360043
0.365779
0.371521
0.377239
0.382901
0.388477
0.393933
0.399246
0.404358
0.409267
0.414303
0.417717
0.292919
0.292833
0.293935
0.29538
0.297496
0.300026
0.30304
0.30643
0.310195
0.314292
0.318694
0.323373
0.328302
0.333454
0.338801
0.344317
0.349974
0.355743
0.361597
0.367507
0.373443
0.379374
0.385272
0.391105
0.396844
0.40246
0.407903
0.413168
0.418546
0.422446
0.293369
0.293282
0.294391
0.295846
0.297978
0.300533
0.303565
0.306986
0.310788
0.314928
0.319381
0.324119
0.329116
0.334347
0.339785
0.345404
0.351177
0.357079
0.363081
0.369157
0.375277
0.381412
0.387534
0.393613
0.39962
0.405526
0.411284
0.41689
0.422595
0.426961
0.293797
0.29371
0.294826
0.296291
0.298436
0.301011
0.304066
0.307516
0.311353
0.315534
0.320035
0.32483
0.329892
0.335198
0.340722
0.346439
0.352324
0.358351
0.364494
0.370727
0.377022
0.383351
0.389686
0.395999
0.40226
0.408443
0.4145
0.42043
0.426447
0.43126
0.294202
0.294116
0.295238
0.296713
0.298872
0.301464
0.304551
0.30802
0.311889
0.316109
0.320657
0.325505
0.330629
0.336006
0.341611
0.347421
0.353412
0.359558
0.365834
0.372216
0.378677
0.385189
0.391727
0.398261
0.404763
0.411208
0.41755
0.423786
0.430102
0.435341
0.294585
0.2945
0.295628
0.297112
0.299283
0.301893
0.30502
0.308498
0.312397
0.316654
0.321245
0.326143
0.331326
0.33677
0.342453
0.34835
0.35444
0.360698
0.367101
0.373624
0.380241
0.386926
0.393654
0.400397
0.407127
0.413819
0.420431
0.426957
0.433555
0.439199
0.294945
0.294862
0.295995
0.297488
0.299671
0.302297
0.305387
0.308947
0.312875
0.317167
0.321799
0.326745
0.331983
0.33749
0.343245
0.349225
0.355409
0.361772
0.368294
0.374948
0.381712
0.388561
0.395468
0.402407
0.409351
0.416276
0.423141
0.42994
0.436805
0.442833
0.295282
0.2952
0.296339
0.29784
0.300035
0.302676
0.305805
0.309369
0.313323
0.317648
0.322318
0.327309
0.332598
0.338165
0.343988
0.350045
0.356316
0.362779
0.369411
0.376189
0.383091
0.390091
0.397166
0.404289
0.411434
0.418576
0.425679
0.432735
0.43985
0.446239
0.295596
0.295516
0.29666
0.298168
0.300374
0.30303
0.306184
0.309761
0.313741
0.318097
0.322802
0.327834
0.333172
0.338794
0.34468
0.350809
0.357162
0.363716
0.370451
0.377345
0.384375
0.391517
0.398747
0.406041
0.413373
0.420719
0.428043
0.435337
0.442688
0.449414
0.295887
0.295808
0.296957
0.298473
0.300689
0.303358
0.306528
0.310125
0.314129
0.318513
0.323251
0.328322
0.333704
0.339377
0.345321
0.351517
0.357945
0.364585
0.371415
0.378416
0.385564
0.392837
0.400212
0.407664
0.415169
0.422703
0.430232
0.437747
0.445316
0.452357
0.296154
0.296077
0.29723
0.298753
0.300978
0.303659
0.306844
0.310459
0.314486
0.318895
0.323664
0.32877
0.334193
0.339913
0.345911
0.352168
0.358666
0.365383
0.372302
0.3794
0.386656
0.39405
0.401557
0.409155
0.416819
0.424526
0.432244
0.439962
0.447732
0.455064
0.296397
0.296322
0.297479
0.299008
0.301242
0.303934
0.307132
0.310765
0.314811
0.319244
0.32404
0.329179
0.334639
0.340402
0.346449
0.352762
0.359323
0.366111
0.373109
0.380297
0.387652
0.395155
0.402783
0.410514
0.418323
0.426187
0.434077
0.441981
0.449935
0.457532
0.296616
0.296543
0.297704
0.299239
0.30148
0.304182
0.307393
0.31104
0.315105
0.319559
0.32438
0.329548
0.335041
0.340843
0.346935
0.353298
0.359915
0.366768
0.373838
0.381106
0.388551
0.396152
0.403889
0.411739
0.419679
0.427685
0.435731
0.443803
0.451922
0.459761
0.296812
0.296739
0.297904
0.299444
0.301692
0.304404
0.307625
0.311286
0.315366
0.31984
0.324683
0.329877
0.3354
0.341236
0.347367
0.353775
0.360443
0.367353
0.374487
0.381826
0.389351
0.397041
0.404874
0.41283
0.420887
0.42902
0.437204
0.445425
0.453693
0.461747
0.296983
0.296912
0.29808
0.299624
0.301878
0.304598
0.307829
0.311501
0.315596
0.320086
0.324949
0.330165
0.335715
0.341581
0.347746
0.354194
0.360906
0.367866
0.375056
0.382458
0.390052
0.397819
0.405738
0.413787
0.421945
0.43019
0.438496
0.446847
0.455246
0.463489
0.29713
0.29706
0.298231
0.299779
0.302038
0.304764
0.308004
0.311686
0.315793
0.320297
0.325177
0.330413
0.335985
0.341877
0.348072
0.354553
0.361304
0.368307
0.375545
0.383
0.390654
0.398487
0.406479
0.414608
0.422854
0.431194
0.439604
0.448068
0.456579
0.464984
0.297252
0.297184
0.298356
0.299908
0.302172
0.304903
0.30815
0.311841
0.315958
0.320474
0.325368
0.33062
0.336211
0.342124
0.348344
0.354853
0.361635
0.368674
0.375953
0.383453
0.391156
0.399044
0.407097
0.415293
0.423612
0.432031
0.440529
0.449086
0.457691
0.466233
0.297351
0.297283
0.298457
0.300011
0.302278
0.305015
0.308267
0.311966
0.31609
0.320615
0.325521
0.330785
0.336391
0.342322
0.348562
0.355093
0.361901
0.368968
0.376279
0.383815
0.391559
0.399491
0.407592
0.415841
0.424219
0.432702
0.44127
0.449902
0.458582
0.467233
0.297424
0.297357
0.298533
0.300089
0.302359
0.305098
0.308355
0.312052
0.316189
0.320721
0.325635
0.330909
0.336527
0.342471
0.348725
0.355273
0.3621
0.369189
0.376524
0.384087
0.39186
0.399826
0.407963
0.416253
0.424674
0.433205
0.441825
0.450514
0.459251
0.467984
0.297473
0.297407
0.298583
0.300141
0.302412
0.305154
0.308414
0.312115
0.316256
0.320792
0.325712
0.330992
0.336617
0.34257
0.348834
0.355394
0.362233
0.369336
0.376687
0.384268
0.392061
0.400049
0.408211
0.416527
0.424977
0.433541
0.442196
0.450922
0.459696
0.468485
0.297498
0.297432
0.298609
0.300167
0.302439
0.305182
0.308443
0.312147
0.316289
0.320828
0.32575
0.331034
0.336663
0.342619
0.348888
0.355454
0.362299
0.36941
0.376769
0.384359
0.392162
0.40016
0.408334
0.416664
0.425129
0.433708
0.442381
0.451126
0.459919
0.468735
0.244478
0.238715
0.232468
0.225748
0.218754
0.211366
0.200787
0.269379
0.269387
0.2698
0.270312
0.271028
0.271818
0.272679
0.273538
0.274358
0.27508
0.275657
0.276034
0.276159
0.275982
0.275452
0.274523
0.273153
0.271303
0.268942
0.266044
0.262591
0.258573
0.25399
0.248848
0.243162
0.236962
0.230251
0.223234
0.215847
0.204821
0.270394
0.270403
0.270856
0.27142
0.272212
0.273095
0.274066
0.275053
0.276015
0.276895
0.277642
0.278202
0.278521
0.278546
0.278225
0.277509
0.276351
0.274712
0.272555
0.269852
0.266581
0.262728
0.258287
0.253264
0.247668
0.241527
0.234837
0.227802
0.220435
0.208928
0.271378
0.271388
0.271879
0.272495
0.273362
0.274336
0.275418
0.276529
0.277633
0.278669
0.279587
0.28033
0.280844
0.281073
0.280963
0.280463
0.279524
0.278102
0.276157
0.273657
0.270577
0.266899
0.262614
0.257722
0.252229
0.24616
0.239503
0.232456
0.225126
0.213103
0.272332
0.272342
0.272871
0.273537
0.274479
0.275542
0.276732
0.277968
0.279212
0.280404
0.281492
0.282418
0.283127
0.283561
0.283665
0.283385
0.282669
0.281469
0.279743
0.277454
0.274575
0.271083
0.266965
0.262217
0.256842
0.250859
0.244247
0.237195
0.229921
0.217338
0.273256
0.273266
0.273832
0.274547
0.275562
0.276714
0.27801
0.279369
0.280752
0.282098
0.283355
0.284464
0.285368
0.286009
0.286328
0.28627
0.285781
0.284808
0.283308
0.281239
0.27857
0.275274
0.271335
0.266745
0.261501
0.255618
0.249068
0.242017
0.234815
0.221625
0.27415
0.27416
0.274762
0.275526
0.276613
0.277851
0.279253
0.280732
0.282252
0.283751
0.285175
0.286466
0.287566
0.288413
0.28895
0.289117
0.288857
0.288117
0.286848
0.285006
0.282555
0.279465
0.275717
0.271297
0.266199
0.260433
0.25396
0.246917
0.2398
0.225952
0.275016
0.275025
0.275663
0.276474
0.277631
0.278955
0.28046
0.282058
0.283714
0.285364
0.286955
0.288428
0.289722
0.290777
0.291532
0.291926
0.2919
0.291397
0.290365
0.288757
0.286533
0.28366
0.280114
0.275878
0.270941
0.265308
0.25893
0.251908
0.244885
0.230317
0.275853
0.275862
0.276535
0.277393
0.278619
0.280027
0.281635
0.283351
0.285142
0.286943
0.2887
0.290354
0.291845
0.29311
0.294086
0.294712
0.294925
0.294666
0.29388
0.292517
0.290531
0.287888
0.284559
0.280523
0.275767
0.27029
0.26403
0.257049
0.250131
0.234774
0.276663
0.276671
0.277378
0.278282
0.279575
0.281066
0.282773
0.284606
0.28653
0.288479
0.290402
0.292236
0.293922
0.295396
0.296595
0.297455
0.29791
0.297901
0.297367
0.296256
0.294519
0.292118
0.28902
0.285202
0.280648
0.275351
0.269243
0.26234
0.255526
0.239293
0.277444
0.277446
0.278182
0.279126
0.280481
0.282046
0.283846
0.285784
0.287829
0.289915
0.291988
0.293986
0.29585
0.297514
0.298914
0.299984
0.300657
0.30087
0.300561
0.299674
0.298157
0.29597
0.293077
0.289457
0.285089
0.279971
0.27403
0.267241
0.260415
0.243097
0.278196
0.278189
0.278946
0.279924
0.281331
0.282961
0.284839
0.286869
0.289017
0.291218
0.293417
0.295552
0.297562
0.29938
0.30094
0.302175
0.303015
0.303396
0.303251
0.302523
0.301158
0.299111
0.29635
0.292852
0.288605
0.28361
0.277814
0.271158
0.264083
0.24521
0.278938
0.278952
0.279762
0.280804
0.282296
0.284028
0.286028
0.288199
0.290509
0.292893
0.295299
0.297664
0.299928
0.302025
0.303888
0.305449
0.306638
0.307386
0.307626
0.307292
0.306326
0.304677
0.302303
0.299176
0.295275
0.290609
0.285146
0.278832
0.272082
0.253227
0.208551
0.198767
0.213538
0.203289
0.194501
0.21866
0.207917
0.198837
0.191217
0.183376
0.223913
0.212644
0.203276
0.195435
0.187336
0.179171
0.229289
0.217459
0.207811
0.19975
0.19139
0.182972
0.17464
0.166352
0.234775
0.22235
0.212436
0.204159
0.195539
0.186867
0.178285
0.169743
0.161232
0.240353
0.227301
0.217141
0.208649
0.19977
0.19085
0.182017
0.173219
0.164451
0.155715
0.147014
0.24599
0.232264
0.221875
0.213168
0.204037
0.194876
0.185798
0.17675
0.167726
0.158731
0.149767
0.140837
0.131943
0.251632
0.237239
0.226663
0.21774
0.20837
0.198981
0.189666
0.180371
0.171094
0.161841
0.152614
0.143416
0.134252
0.125126
0.257267
0.242589
0.231943
0.222783
0.213159
0.203519
0.193936
0.184364
0.174805
0.165264
0.155746
0.146254
0.136794
0.127371
0.117991
0.108657
0.261911
0.247643
0.237075
0.227683
0.217836
0.207956
0.198104
0.188252
0.178406
0.168574
0.158759
0.14897
0.139211
0.129488
0.119809
0.110179
0.100603
0.260483
0.247026
0.237068
0.227932
0.218367
0.20868
0.19894
0.189147
0.179318
0.169468
0.15961
0.149755
0.139912
0.13009
0.120297
0.110541
0.100829
0.0911692
0.0815673
)
;

boundaryField
{
    inlet
    {
        type            zeroGradient;
    }
    outlet
    {
        type            fixedValue;
        value           nonuniform 0();
    }
    cylinder
    {
        type            zeroGradient;
    }
    top
    {
        type            symmetryPlane;
    }
    bottom
    {
        type            symmetryPlane;
    }
    defaultFaces
    {
        type            empty;
    }
    procBoundary4to0
    {
        type            processor;
        value           nonuniform List<scalar> 
66
(
0.0720302
0.0625642
0.0531753
0.240159
0.234331
0.228049
0.221329
0.214365
0.206992
0.196831
0.268333
0.26834
0.268713
0.269172
0.26981
0.270507
0.271255
0.271987
0.272662
0.273227
0.273633
0.273827
0.27376
0.273382
0.272647
0.27151
0.269932
0.267878
0.26532
0.262236
0.258612
0.254441
0.249727
0.249727
0.203701
0.203701
0.194357
0.190273
0.190273
0.187103
0.187103
0.179517
0.175466
0.175466
0.171089
0.171089
0.163053
0.158097
0.158097
0.152756
0.152756
0.144317
0.138348
0.138348
0.129721
0.123089
0.123089
0.116043
0.116043
0.107006
0.0993769
0.0993769
0.0910884
0.0910884
0.0816399
0.0720302
)
;
    }
    procBoundary4to5
    {
        type            processor;
        value           nonuniform List<scalar> 
69
(
0.942968
0.942968
0.927381
0.910814
0.893293
0.874846
0.855503
0.835293
0.814248
0.792401
0.696582
0.696582
0.675206
0.653197
0.630589
0.607417
0.583717
0.539633
0.539633
0.515878
0.49172
0.467196
0.442341
0.399285
0.399285
0.375246
0.350997
0.326576
0.297698
0.297698
0.274191
0.25055
0.228787
0.228787
0.20624
0.183752
0.169423
0.169423
0.148072
0.138234
0.138234
0.118059
0.111784
0.111784
0.0927776
0.0892216
0.0892216
0.0713621
0.0698673
0.0698673
0.0531202
0.0531649
0.0531649
0.0534585
0.0534585
0.0386684
0.0398462
0.0398462
0.0408912
0.0408912
0.0417272
0.0417272
0.0423238
0.0423238
0.0428296
0.0428296
0.0420409
0.0420409
0.0464641
)
;
    }
    procBoundary4to8
    {
        type            processor;
        value           nonuniform List<scalar> 
51
(
1.04616
0.949856
0.915738
0.870429
0.837622
0.805979
0.77737
0.750651
0.750651
0.724117
0.698249
0.673009
0.648405
0.624501
0.601368
0.579075
0.557676
0.537206
0.517683
0.499121
0.481483
0.297498
0.297432
0.298609
0.300167
0.302439
0.305182
0.308443
0.312147
0.316289
0.320828
0.32575
0.331034
0.336663
0.342619
0.348888
0.355454
0.362299
0.36941
0.376769
0.384359
0.392162
0.40016
0.408334
0.416664
0.425129
0.433708
0.442381
0.451126
0.459919
0.468735
)
;
    }
}


// ************************************************************************* //
