0 	0.534376 	0 	0.164934 	0.00564494 	9.32453e-21
0 	0.60573 	1.38778e-18 	0.425088 	0.0406708 	5.08026e-21
0 	0.682485 	1.38778e-18 	0.645408 	0.0952558 	1.19427e-21
0 	0.765049 	-1.73472e-18 	0.82675 	0.146258 	-7.10101e-21
0 	0.853863 	-3.46945e-18 	0.97217 	0.192721 	1.16238e-21
0 	0.949399 	-2.08167e-18 	1.08266 	0.225875 	-3.86752e-21
