/*--------------------------------*- C++ -*----------------------------------*\
  =========                 |
  \\      /  F ield         | OpenFOAM: The Open Source CFD Toolbox
   \\    /   O peration     | Website:  https://openfoam.org
    \\  /    A nd           | Version:  7
     \\/     M anipulation  |
\*---------------------------------------------------------------------------*/
FoamFile
{
    version     2.0;
    format      ascii;
    class       volScalarField;
    location    "15";
    object      p;
}
// * * * * * * * * * * * * * * * * * * * * * * * * * * * * * * * * * * * * * //

dimensions      [0 2 -2 0 0 0 0];

internalField   nonuniform List<scalar> 
2625
(
-0.0240848
-0.0230542
-0.0220239
-0.020992
-0.0199615
-0.018928
-0.0178991
-0.0168647
-0.0158426
-0.0148086
-0.0138043
-0.0127705
-0.0118047
-0.010765
-0.0098765
-0.00880666
-0.00807017
-0.00690233
-0.00646583
-0.00503246
-0.00519713
-0.00311276
-0.0045024
-0.00091349
-0.00483198
0.00211008
-0.00701707
-0.0501556
-0.048966
-0.047788
-0.0466214
-0.0454662
-0.044322
-0.0431886
-0.0420658
-0.0409531
-0.0398501
-0.0387564
-0.0376714
-0.0365947
-0.0355256
-0.0344636
-0.0334079
-0.032358
-0.031313
-0.0302723
-0.0292352
-0.028201
-0.0271689
-0.0261383
-0.0251086
-0.0240793
-0.0230497
-0.0220203
-0.0209893
-0.0199593
-0.0189265
-0.0178979
-0.016864
-0.015842
-0.0148083
-0.0138034
-0.0127702
-0.0118029
-0.0107643
-0.00987254
-0.0088058
-0.00806247
-0.00690219
-0.00645151
-0.00503572
-0.00517082
-0.00312567
-0.00445381
-0.000949299
-0.00474237
0.0020272
-0.00685276
-0.0501211
-0.0489321
-0.0477547
-0.0465891
-0.0454348
-0.0442917
-0.0431594
-0.0420378
-0.0409264
-0.0398247
-0.0387323
-0.0376488
-0.0365735
-0.0355058
-0.0344452
-0.033391
-0.0323424
-0.0312989
-0.0302596
-0.0292238
-0.0281908
-0.0271599
-0.0261306
-0.0251019
-0.0240738
-0.0230451
-0.0220165
-0.0209863
-0.019957
-0.0189249
-0.0178966
-0.0168632
-0.0158411
-0.0148078
-0.0138024
-0.0127697
-0.0118008
-0.0107635
-0.00986837
-0.0088048
-0.00805453
-0.00690197
-0.0064369
-0.005039
-0.00514411
-0.00313881
-0.00440458
-0.00098573
-0.00465173
0.00194298
-0.00668688
-0.0500867
-0.0488982
-0.0477217
-0.0465568
-0.0454035
-0.0442614
-0.0431303
-0.0420099
-0.0408997
-0.0397994
-0.0387083
-0.0376262
-0.0365523
-0.035486
-0.0344268
-0.033374
-0.0323268
-0.0312846
-0.0302467
-0.0292122
-0.0281806
-0.0271509
-0.0261227
-0.0250952
-0.024068
-0.0230403
-0.0220126
-0.0209832
-0.0199545
-0.018923
-0.0178951
-0.0168621
-0.01584
-0.0148071
-0.013801
-0.0127689
-0.0117985
-0.0107625
-0.00986395
-0.00880363
-0.00804632
-0.00690166
-0.00642199
-0.00504231
-0.00511699
-0.00315219
-0.0043547
-0.00102284
-0.00456
0.00185731
-0.00651941
-0.0500521
-0.0488643
-0.0476884
-0.0465244
-0.045372
-0.044231
-0.0431011
-0.0419818
-0.0408729
-0.0397738
-0.0386842
-0.0376033
-0.0365308
-0.035466
-0.0344082
-0.0333567
-0.032311
-0.0312701
-0.0302335
-0.0292004
-0.02817
-0.0271415
-0.0261145
-0.025088
-0.0240619
-0.0230352
-0.0220083
-0.0209797
-0.0199516
-0.0189207
-0.0178931
-0.0168607
-0.0158385
-0.014806
-0.0137993
-0.0127678
-0.0117958
-0.0107611
-0.00985921
-0.00880225
-0.00803781
-0.00690122
-0.00640675
-0.00504564
-0.00508946
-0.00316583
-0.00430418
-0.00106066
-0.00446717
0.00177009
-0.00635037
-0.0500156
-0.0488285
-0.0476535
-0.0464904
-0.0453391
-0.0441992
-0.0430705
-0.0419525
-0.0408449
-0.0397473
-0.038659
-0.0375796
-0.0365085
-0.0354452
-0.0343888
-0.0333389
-0.0322945
-0.0312551
-0.0302199
-0.0291881
-0.028159
-0.0271318
-0.026106
-0.0250806
-0.0240556
-0.0230298
-0.0220038
-0.020976
-0.0199486
-0.0189183
-0.0178911
-0.0168591
-0.0158369
-0.0148048
-0.0137976
-0.0127666
-0.011793
-0.0107597
-0.00985434
-0.00880074
-0.00802915
-0.00690064
-0.00639133
-0.00504881
-0.00506175
-0.00317932
-0.00425347
-0.00109837
-0.00437426
0.00168292
-0.00618075
-0.0499772
-0.048791
-0.047617
-0.0464551
-0.045305
-0.0441665
-0.0430391
-0.0419227
-0.0408166
-0.0397205
-0.0386339
-0.0375561
-0.0364867
-0.035425
-0.0343703
-0.0333219
-0.0322792
-0.0312414
-0.0302077
-0.0291774
-0.0281498
-0.027124
-0.0260994
-0.0250753
-0.0240514
-0.0230267
-0.0220015
-0.0209746
-0.0199478
-0.0189181
-0.0178912
-0.0168596
-0.0158373
-0.0148055
-0.0137975
-0.012767
-0.0117916
-0.0107594
-0.0098505
-0.00879988
-0.00802117
-0.00690017
-0.00637637
-0.00505149
-0.00503452
-0.00319156
-0.0042038
-0.00113373
-0.00428398
0.00160023
-0.00601296
-0.0499535
-0.0487675
-0.047594
-0.0464327
-0.0452833
-0.0441456
-0.0430192
-0.0419037
-0.0407988
-0.0397038
-0.0386183
-0.0375418
-0.0364736
-0.0354131
-0.0343597
-0.0333126
-0.0322712
-0.0312346
-0.0302021
-0.029173
-0.0281464
-0.0271217
-0.0260981
-0.025075
-0.0240519
-0.0230279
-0.0220034
-0.020977
-0.0199505
-0.0189212
-0.0178943
-0.0168629
-0.0158401
-0.0148084
-0.0137994
-0.012769
-0.0117917
-0.0107604
-0.00984759
-0.00879987
-0.00801367
-0.00690027
-0.00636146
-0.00505462
-0.00500689
-0.00320439
-0.0041531
-0.00117031
-0.00419177
0.00151494
-0.00584268
-0.0499737
-0.0487854
-0.0476096
-0.0464461
-0.0452947
-0.0441551
-0.0430268
-0.0419096
-0.0408029
-0.0397063
-0.0386193
-0.0375414
-0.0364718
-0.03541
-0.0343553
-0.0333071
-0.0322645
-0.0312269
-0.0301935
-0.0291634
-0.028136
-0.0271106
-0.0260864
-0.0250626
-0.024039
-0.0230146
-0.0219898
-0.0209632
-0.0199366
-0.0189074
-0.0178804
-0.0168494
-0.0158265
-0.0147957
-0.0137863
-0.0127578
-0.011779
-0.0107511
-0.0098346
-0.00879378
-0.00799849
-0.00689936
-0.00634003
-0.00506316
-0.00497089
-0.00323162
-0.00408618
-0.00123588
-0.00406383
0.00137205
-0.00563948
-0.0499178
-0.0487258
-0.047546
-0.0463783
-0.0452226
-0.0440785
-0.0429456
-0.0418237
-0.0407123
-0.0396109
-0.0385191
-0.0374363
-0.036362
-0.0352956
-0.0342363
-0.0331837
-0.0321369
-0.0310952
-0.0300581
-0.0290246
-0.0279943
-0.0269662
-0.02594
-0.0249147
-0.0238903
-0.0228658
-0.0218414
-0.0208164
-0.0197919
-0.0187662
-0.0177429
-0.0167177
-0.0156998
-0.0146778
-0.0136736
-0.0126578
-0.0116822
-0.0106735
-0.00975334
-0.0087433
-0.00792754
-0.00688265
-0.00626576
-0.00509247
-0.00486454
-0.00333328
-0.00389125
-0.00146848
-0.00367438
0.000878856
-0.00508946
-0.0496197
-0.0484387
-0.0472701
-0.0461138
-0.0449693
-0.0438364
-0.0427146
-0.0416037
-0.0405031
-0.0394124
-0.0383311
-0.0372585
-0.0361942
-0.0351374
-0.0340876
-0.033044
-0.0320061
-0.0309729
-0.0299439
-0.0289182
-0.0278953
-0.0268743
-0.0258547
-0.0248358
-0.0238172
-0.0227982
-0.021779
-0.0207587
-0.0197383
-0.0187165
-0.0176963
-0.0166745
-0.0156583
-0.0146394
-0.0136349
-0.0126229
-0.0116439
-0.0106413
-0.00971164
-0.00871433
-0.00787689
-0.00686037
-0.00619624
-0.00508632
-0.00475714
-0.00336552
-0.00370834
-0.00158808
-0.00334392
0.000572461
-0.00449559
-0.0491819
-0.0480173
-0.0468651
-0.0457249
-0.0445966
-0.0434798
-0.0423739
-0.0412786
-0.0401935
-0.0391179
-0.0380514
-0.0369934
-0.0359432
-0.0349003
-0.0338639
-0.0328334
-0.0318081
-0.0307871
-0.0297699
-0.0287555
-0.0277434
-0.0267328
-0.025723
-0.0247135
-0.0237037
-0.022693
-0.0216814
-0.0206683
-0.0196544
-0.0186388
-0.0176238
-0.0166071
-0.0155947
-0.0145801
-0.0135776
-0.0125696
-0.0115899
-0.0105924
-0.00965763
-0.00866918
-0.0078181
-0.00682026
-0.00612514
-0.00505685
-0.0046601
-0.00336123
-0.00355882
-0.00164234
-0.00309031
0.000393425
-0.00399339
-0.0499145
-0.048752
-0.0476022
-0.0464648
-0.0453394
-0.0442257
-0.0431232
-0.0420317
-0.0409505
-0.0398791
-0.0388172
-0.037764
-0.036719
-0.0356816
-0.0346511
-0.0336268
-0.032608
-0.0315941
-0.0305842
-0.0295775
-0.0285735
-0.0275713
-0.0265702
-0.0255695
-0.0245687
-0.0235672
-0.0225645
-0.0215604
-0.0205545
-0.0195473
-0.0185381
-0.0175288
-0.0165179
-0.0155101
-0.0145008
-0.0135015
-0.0124987
-0.0115201
-0.0105289
-0.00959122
-0.00861244
-0.00775082
-0.00677146
-0.00604978
-0.00502062
-0.00456325
-0.00335022
-0.00341414
-0.00168696
-0.00284447
0.00022701
-0.00351166
-0.0494917
-0.0483434
-0.0472078
-0.0460845
-0.0449731
-0.0438732
-0.0427844
-0.0417063
-0.0406383
-0.03958
-0.0385308
-0.0374901
-0.0364572
-0.0354317
-0.0344127
-0.0333997
-0.0323918
-0.0313884
-0.0303887
-0.0293919
-0.0283973
-0.0274043
-0.0264119
-0.0254197
-0.0244269
-0.0234331
-0.0224376
-0.0214405
-0.0204412
-0.0194401
-0.0184368
-0.0174329
-0.0164273
-0.015424
-0.0144195
-0.0134235
-0.0124256
-0.0114483
-0.0104628
-0.00952305
-0.00855292
-0.00768242
-0.00671939
-0.00597448
-0.00497997
-0.00446852
-0.00333229
-0.00327481
-0.00172002
-0.00260723
7.56763e-05
-0.00304492
-0.0490766
-0.0479426
-0.0468211
-0.0457118
-0.0446143
-0.0435282
-0.042453
-0.0413882
-0.0403334
-0.0392879
-0.0382513
-0.0372229
-0.036202
-0.0351882
-0.0341806
-0.0331785
-0.0321813
-0.0311882
-0.0301985
-0.0292113
-0.028226
-0.0272418
-0.0262579
-0.0252738
-0.0242888
-0.0233023
-0.0223139
-0.0213234
-0.0203304
-0.0193352
-0.0183375
-0.0173386
-0.016338
-0.0153388
-0.0143389
-0.0133459
-0.0123523
-0.0113764
-0.0103958
-0.00945451
-0.00849159
-0.00761371
-0.00666424
-0.00589962
-0.0049342
-0.00437619
-0.00330566
-0.00314186
-0.00173825
-0.00238226
-5.35139e-05
-0.00259433
-0.0486673
-0.0475474
-0.0464399
-0.0453446
-0.0442609
-0.0431884
-0.0421266
-0.041075
-0.040033
-0.0390002
-0.037976
-0.0369596
-0.0359506
-0.0349482
-0.0339517
-0.0329604
-0.0319737
-0.0309907
-0.0300107
-0.0290329
-0.0280566
-0.027081
-0.0261054
-0.0251292
-0.0241517
-0.0231724
-0.0221908
-0.0212067
-0.0202197
-0.0192302
-0.0182379
-0.0172439
-0.016248
-0.0152529
-0.0142571
-0.0132671
-0.0122774
-0.0113031
-0.0103267
-0.0093845
-0.00842766
-0.00754379
-0.00660558
-0.0058244
-0.00488332
-0.00428545
-0.00327089
-0.00301422
-0.00174296
-0.00216805
-0.000162694
-0.00215724
-0.0493838
-0.0482651
-0.0471592
-0.0460656
-0.0449839
-0.0439138
-0.0428546
-0.0418059
-0.0407672
-0.0397379
-0.0387174
-0.0377052
-0.0367007
-0.0357031
-0.0347118
-0.0337261
-0.0327454
-0.0317688
-0.0307955
-0.029825
-0.0288563
-0.0278887
-0.0269214
-0.0259539
-0.0249853
-0.024015
-0.0230426
-0.0220675
-0.0210896
-0.0201084
-0.0191243
-0.0181371
-0.0171479
-0.0161564
-0.0151652
-0.0141734
-0.0131865
-0.0122004
-0.0112278
-0.0102552
-0.00931246
-0.00836083
-0.00747217
-0.00654341
-0.00574833
-0.00482772
-0.00419559
-0.00322896
-0.00289064
-0.00173616
-0.00196234
-0.00025547
-0.00173036
-0.0489755
-0.0478706
-0.0467784
-0.0456985
-0.0446303
-0.0435733
-0.0425272
-0.0414913
-0.0404652
-0.0394482
-0.0384398
-0.0374393
-0.0364462
-0.0354598
-0.0344793
-0.0335041
-0.0325335
-0.0315667
-0.0306029
-0.0296414
-0.0286815
-0.0277223
-0.0267631
-0.0258032
-0.0248419
-0.0238786
-0.0229128
-0.021944
-0.0209719
-0.0199964
-0.0190174
-0.0180351
-0.0170504
-0.0160632
-0.0150758
-0.0140877
-0.0131037
-0.012121
-0.0111502
-0.0101811
-0.00923824
-0.00829112
-0.00739866
-0.00647786
-0.00567111
-0.00476776
-0.00410612
-0.00318066
-0.00277017
-0.00171935
-0.00176347
-0.000334463
-0.00131117
-0.0485751
-0.0474839
-0.0464052
-0.0453386
-0.0442836
-0.0432396
-0.0422063
-0.0411829
-0.040169
-0.039164
-0.0381673
-0.0371782
-0.0361962
-0.0352206
-0.0342506
-0.0332855
-0.0323247
-0.0313674
-0.0304127
-0.02946
-0.0285085
-0.0275573
-0.0266059
-0.0256533
-0.0246991
-0.0237424
-0.0227829
-0.0218201
-0.0208536
-0.0198834
-0.0189094
-0.0179318
-0.0169513
-0.0159682
-0.0149844
-0.0139999
-0.0130188
-0.0120393
-0.0110703
-0.0101043
-0.0091617
-0.00821852
-0.00732311
-0.00640904
-0.00559252
-0.00470372
-0.00401663
-0.00312662
-0.00265209
-0.00169374
-0.00157019
-0.00040165
-0.000897805
-0.0481829
-0.0471051
-0.0460397
-0.0449862
-0.043944
-0.0429127
-0.0418918
-0.0408806
-0.0398786
-0.0388852
-0.0378999
-0.0369219
-0.0359506
-0.0349854
-0.0340255
-0.0330703
-0.0321189
-0.0311706
-0.0302248
-0.0292805
-0.028337
-0.0273936
-0.0264495
-0.025504
-0.0245565
-0.0236062
-0.0226527
-0.0216956
-0.0207345
-0.0197693
-0.0188
-0.0178269
-0.0168505
-0.0158713
-0.0148909
-0.0139098
-0.0129315
-0.011955
-0.0109879
-0.0100249
-0.00908273
-0.00814304
-0.00724539
-0.00633705
-0.00551238
-0.0046359
-0.00392681
-0.00306739
-0.0025358
-0.00166041
-0.00138152
-0.0004587
-0.00048889
-0.0488764
-0.0477991
-0.0467344
-0.045682
-0.0446412
-0.0436117
-0.0425927
-0.0415838
-0.0405844
-0.039594
-0.0386119
-0.0376376
-0.0366703
-0.0357094
-0.0347542
-0.0338041
-0.0328582
-0.0319159
-0.0309764
-0.030039
-0.0291027
-0.028167
-0.027231
-0.026294
-0.0253552
-0.024414
-0.0234698
-0.022522
-0.0215703
-0.0206143
-0.0196539
-0.0186891
-0.0177202
-0.0167477
-0.0157722
-0.0147952
-0.0138173
-0.0128417
-0.0118681
-0.0109029
-0.00994266
-0.00900124
-0.00806468
-0.00716541
-0.006262
-0.00543057
-0.00456454
-0.00383643
-0.00300351
-0.00242086
-0.00162032
-0.00119666
-0.000507048
-8.3428e-05
-0.0484882
-0.047424
-0.0463722
-0.0453324
-0.0443041
-0.0432867
-0.0422797
-0.0412825
-0.0402946
-0.0393154
-0.0383442
-0.0373804
-0.0364234
-0.0354725
-0.034527
-0.0335862
-0.0326494
-0.0317158
-0.0307847
-0.0298552
-0.0289267
-0.0279984
-0.0270694
-0.0261391
-0.0252067
-0.0242715
-0.0233331
-0.0223907
-0.0214441
-0.020493
-0.0195371
-0.0185766
-0.0176117
-0.0166429
-0.0156709
-0.0146971
-0.0137223
-0.0127493
-0.0117785
-0.0108154
-0.00985767
-0.00891719
-0.0079835
-0.00708314
-0.00618402
-0.00534703
-0.00448991
-0.00374534
-0.00293548
-0.00230692
-0.00157432
-0.00101502
-0.000547938
0.000319252
-0.0481094
-0.0470578
-0.0460186
-0.0449911
-0.0439748
-0.0429693
-0.0419738
-0.040988
-0.0400111
-0.0390427
-0.038082
-0.0371284
-0.0361813
-0.03524
-0.0343037
-0.0333719
-0.0324437
-0.0315184
-0.0305953
-0.0296735
-0.0287523
-0.027831
-0.0269087
-0.0259847
-0.0250584
-0.024129
-0.0231959
-0.0222587
-0.021317
-0.0203704
-0.0194188
-0.0184623
-0.0175012
-0.016536
-0.0155674
-0.0145967
-0.0136248
-0.0126545
-0.0116863
-0.0107252
-0.00976995
-0.0088306
-0.00789958
-0.0069986
-0.00610327
-0.00526174
-0.0044123
-0.00365345
-0.00286376
-0.00219375
-0.00152321
-0.000836173
-0.00058243
0.000719507
-0.0477402
-0.046701
-0.0456738
-0.0446583
-0.0436537
-0.0426596
-0.0416753
-0.0407004
-0.0397342
-0.0387761
-0.0378255
-0.0368817
-0.035944
-0.0350119
-0.0340845
-0.0331612
-0.0322412
-0.0313239
-0.0304083
-0.0294938
-0.0285796
-0.0276649
-0.0267489
-0.0258309
-0.0249103
-0.0239863
-0.0230584
-0.022126
-0.0211888
-0.0202466
-0.019299
-0.0183464
-0.0173888
-0.016427
-0.0154616
-0.0144938
-0.0135248
-0.012557
-0.0115914
-0.0106324
-0.00967958
-0.00874154
-0.00781305
-0.00691186
-0.00601993
-0.00517477
-0.00433198
-0.00356076
-0.00278882
-0.00208122
-0.00146768
-0.000659841
-0.000611398
0.0011174
-0.0484206
-0.047381
-0.0463537
-0.0453383
-0.0443343
-0.043341
-0.0423579
-0.0413844
-0.04042
-0.039464
-0.0385158
-0.0375748
-0.0366403
-0.0357117
-0.0347883
-0.0338694
-0.0329542
-0.032042
-0.0311322
-0.0302238
-0.0293162
-0.0284085
-0.0275
-0.02659
-0.0256777
-0.0247625
-0.0238436
-0.0229204
-0.0219926
-0.0210597
-0.0201215
-0.0191778
-0.0182287
-0.0172746
-0.016316
-0.0153536
-0.0143887
-0.0134225
-0.0124572
-0.0114941
-0.0105371
-0.00958671
-0.00865012
-0.00772406
-0.00682305
-0.00593422
-0.00508621
-0.00424925
-0.00346731
-0.00271109
-0.00196926
-0.0014084
-0.000485893
-0.000635577
0.00151273
-0.0480599
-0.0470321
-0.0460164
-0.0450123
-0.0440193
-0.0430369
-0.0420644
-0.0411012
-0.0401468
-0.0392006
-0.0382619
-0.03733
-0.0364045
-0.0354845
-0.0345694
-0.0336584
-0.032751
-0.0318462
-0.0309434
-0.0300418
-0.0291407
-0.0282392
-0.0273366
-0.0264322
-0.0255252
-0.0246149
-0.0237008
-0.0227822
-0.0218586
-0.0209297
-0.0199953
-0.0190552
-0.0181095
-0.0171586
-0.016203
-0.0152435
-0.0142814
-0.0133178
-0.012355
-0.0113944
-0.0104396
-0.0094915
-0.00855653
-0.00763285
-0.00673233
-0.0058464
-0.00499623
-0.00416445
-0.00337322
-0.00263101
-0.00185793
-0.00134597
-0.000314318
-0.000655595
0.00190509
-0.0477104
-0.0466939
-0.0456893
-0.0446961
-0.0437138
-0.0427417
-0.0417793
-0.040826
-0.0398812
-0.0389442
-0.0380145
-0.0370915
-0.0361743
-0.0352625
-0.0343552
-0.0334519
-0.0325516
-0.0316538
-0.0307577
-0.0298625
-0.0289674
-0.0280717
-0.0271747
-0.0262755
-0.0253734
-0.0244679
-0.0235582
-0.0226438
-0.0217242
-0.020799
-0.0198681
-0.0189314
-0.0179889
-0.017041
-0.0160883
-0.0151316
-0.0141721
-0.0132111
-0.0122507
-0.0112925
-0.0103399
-0.00939422
-0.00846099
-0.00753967
-0.00663993
-0.00575677
-0.00490504
-0.00407791
-0.00327865
-0.00254904
-0.00174731
-0.00128096
-0.000145207
-0.000671991
0.00229389
-0.0473724
-0.0463667
-0.0453728
-0.0443901
-0.0434179
-0.0424557
-0.041503
-0.0405591
-0.0396233
-0.0386952
-0.0377741
-0.0368593
-0.0359501
-0.035046
-0.0341461
-0.0332499
-0.0323565
-0.0314652
-0.0305753
-0.0296861
-0.0287967
-0.0279064
-0.0270144
-0.0261201
-0.0252227
-0.0243215
-0.0234159
-0.0225054
-0.0215895
-0.0206678
-0.0197402
-0.0188066
-0.0178671
-0.0169221
-0.0159721
-0.0150181
-0.0140612
-0.0131027
-0.0121447
-0.0111889
-0.0102385
-0.00929515
-0.00836378
-0.00744483
-0.00654615
-0.00566565
-0.00481289
-0.00399002
-0.00318384
-0.00246562
-0.00163757
-0.00121392
2.12579e-05
-0.000685228
0.00267836
-0.0470463
-0.0460511
-0.0450674
-0.0440946
-0.0431321
-0.0421793
-0.0412357
-0.0403007
-0.0393736
-0.0384538
-0.0375407
-0.0366337
-0.0357321
-0.0348351
-0.0339422
-0.0330526
-0.0321656
-0.0312805
-0.0303964
-0.0295127
-0.0286286
-0.0277433
-0.0268561
-0.0259663
-0.0250731
-0.024176
-0.0232742
-0.0223673
-0.0214548
-0.0205364
-0.0196118
-0.0186811
-0.0177445
-0.0168021
-0.0158548
-0.0149033
-0.0139488
-0.0129928
-0.0120372
-0.0110838
-0.0101356
-0.00919464
-0.00826526
-0.00734869
-0.0064513
-0.00557341
-0.00472011
-0.00390116
-0.00308903
-0.00238121
-0.00152894
-0.00114539
0.000184815
-0.000695711
0.00305761
-0.0477297
-0.0467326
-0.0457474
-0.0447733
-0.0438099
-0.0428566
-0.0419128
-0.0409778
-0.0400511
-0.0391322
-0.0382203
-0.0373148
-0.0364151
-0.0355205
-0.0346303
-0.0337439
-0.0328605
-0.0319794
-0.0311
-0.0302213
-0.0293428
-0.0284635
-0.0275829
-0.0267001
-0.0258144
-0.0249252
-0.0240317
-0.0231334
-0.0222298
-0.0213205
-0.020405
-0.0194834
-0.0185554
-0.0176213
-0.0166816
-0.0157367
-0.0147876
-0.0138355
-0.0128819
-0.0119286
-0.0109776
-0.0100317
-0.00909312
-0.00816582
-0.00725167
-0.00635578
-0.00548047
-0.00462703
-0.00381178
-0.00299457
-0.00229627
-0.00142169
-0.00107589
0.000345136
-0.000703794
0.0034306
-0.0474192
-0.0464318
-0.0454559
-0.044491
-0.0435366
-0.0425919
-0.0416564
-0.0407296
-0.0398108
-0.0388995
-0.0379949
-0.0370965
-0.0362037
-0.0353156
-0.0344318
-0.0335514
-0.0326738
-0.0317982
-0.030924
-0.0300504
-0.0291765
-0.0283018
-0.0274254
-0.0265467
-0.0256648
-0.0247791
-0.0238891
-0.022994
-0.0220935
-0.021187
-0.0202743
-0.0193552
-0.0184298
-0.0174982
-0.0165608
-0.0156183
-0.0146715
-0.0137217
-0.0127704
-0.0118194
-0.0108708
-0.00992722
-0.00899103
-0.00806592
-0.00715421
-0.00626002
-0.00538728
-0.00453407
-0.00372231
-0.00290078
-0.00221129
-0.00131613
-0.0010059
0.000501835
-0.000709789
0.00379621
-0.0471224
-0.0461441
-0.0451772
-0.0442209
-0.0432748
-0.0423382
-0.0414107
-0.0404915
-0.0395801
-0.0386758
-0.0377782
-0.0368864
-0.0359999
-0.0351179
-0.0342399
-0.0333651
-0.0324929
-0.0316224
-0.030753
-0.0298839
-0.0290145
-0.0281439
-0.0272714
-0.0263963
-0.0255179
-0.0246355
-0.0237485
-0.0228564
-0.0219586
-0.0210548
-0.0201446
-0.019228
-0.0183049
-0.0173755
-0.0164404
-0.0155
-0.0145555
-0.0136079
-0.0126589
-0.0117102
-0.0107639
-0.00982267
-0.00888891
-0.00796605
-0.00705682
-0.00616448
-0.00529431
-0.00444166
-0.00363324
-0.00280808
-0.00212676
-0.00121261
-0.000935949
0.00065448
-0.000713979
0.00415323
-0.0468398
-0.0458701
-0.0449115
-0.0439633
-0.0430251
-0.0420961
-0.0411759
-0.0402638
-0.0393593
-0.0384616
-0.0375703
-0.0366847
-0.035804
-0.0349277
-0.0340551
-0.0331855
-0.0323181
-0.0314523
-0.0305873
-0.0297225
-0.028857
-0.0279901
-0.0271212
-0.0262494
-0.0253742
-0.0244948
-0.0236106
-0.0227211
-0.0218258
-0.0209244
-0.0200165
-0.0191021
-0.0181811
-0.0172539
-0.0163208
-0.0153826
-0.0144402
-0.0134948
-0.0125479
-0.0116015
-0.0106575
-0.00971862
-0.0087873
-0.00786676
-0.00696003
-0.00606968
-0.00520209
-0.00435026
-0.00354506
-0.00271688
-0.00204316
-0.00111152
-0.000866509
0.0008026
-0.000716616
0.00450038
-0.0465719
-0.0456102
-0.0446593
-0.0437187
-0.0427877
-0.0418658
-0.0409524
-0.0400469
-0.0391487
-0.0382573
-0.0373718
-0.0364918
-0.0356166
-0.0347455
-0.0338778
-0.0330128
-0.03215
-0.0312884
-0.0304275
-0.0295664
-0.0287045
-0.0278411
-0.0269753
-0.0261066
-0.0252342
-0.0243575
-0.0234758
-0.0225887
-0.0216957
-0.0207964
-0.0198906
-0.0189782
-0.0180592
-0.017134
-0.0162029
-0.0152666
-0.0143262
-0.0133829
-0.0124382
-0.0114939
-0.0105523
-0.00961569
-0.00868681
-0.00776862
-0.00686441
-0.00597616
-0.00511115
-0.00426038
-0.0034583
-0.00262762
-0.00196101
-0.00101327
-0.00079807
0.000945696
-0.000717933
0.00483636
-0.0463189
-0.0453646
-0.044421
-0.0434873
-0.0425631
-0.0416478
-0.0407407
-0.0398413
-0.0389489
-0.0380631
-0.037183
-0.0363082
-0.0354379
-0.0345715
-0.0337084
-0.0328477
-0.0319889
-0.0311312
-0.0302739
-0.0294163
-0.0285577
-0.0276973
-0.0268344
-0.0259684
-0.0250985
-0.0242242
-0.0233448
-0.0224598
-0.0215688
-0.0206715
-0.0197676
-0.018857
-0.0179399
-0.0170164
-0.0160872
-0.0151528
-0.0142143
-0.0132729
-0.0123303
-0.0113882
-0.0104488
-0.00951453
-0.00858807
-0.00767226
-0.00677058
-0.0058845
-0.00502206
-0.00417253
-0.00337347
-0.00254078
-0.00188082
-0.000918291
-0.000731108
0.00108325
-0.00071814
0.00515981
-0.0460812
-0.0451339
-0.0441969
-0.0432697
-0.0423517
-0.0414423
-0.040541
-0.0396472
-0.0387602
-0.0378795
-0.0370044
-0.0361343
-0.0352685
-0.0344064
-0.0335474
-0.0326906
-0.0318355
-0.0309812
-0.0301272
-0.0292727
-0.028417
-0.0275593
-0.026699
-0.0258354
-0.0249678
-0.0240956
-0.0232182
-0.0223351
-0.0214459
-0.0205504
-0.0196481
-0.0187392
-0.0178238
-0.016902
-0.0159744
-0.0150418
-0.0141051
-0.0131656
-0.012225
-0.011285
-0.0103478
-0.00941581
-0.00849174
-0.00757831
-0.00667914
-0.00579528
-0.00493539
-0.00408727
-0.00329113
-0.00245683
-0.00180309
-0.000827017
-0.000666093
0.00121472
-0.000717433
0.00546936
-0.046811
-0.0458592
-0.0449182
-0.0439873
-0.043066
-0.0421537
-0.0412498
-0.0403538
-0.0394651
-0.038583
-0.037707
-0.0368363
-0.0359705
-0.0351088
-0.0342506
-0.0333952
-0.0325419
-0.0316901
-0.030839
-0.0299879
-0.0291362
-0.028283
-0.0274278
-0.0265697
-0.0257082
-0.0248426
-0.0239723
-0.0230967
-0.0222153
-0.0213277
-0.0204337
-0.019533
-0.0186256
-0.0177116
-0.0167913
-0.0158653
-0.0149343
-0.0139994
-0.0130618
-0.012123
-0.011185
-0.01025
-0.00932023
-0.00839851
-0.00748743
-0.00659073
-0.00570911
-0.00485174
-0.00400512
-0.0032118
-0.00237626
-0.00172833
-0.000739898
-0.000603484
0.00133958
-0.000715996
0.00576366
-0.046599
-0.0456533
-0.044718
-0.0437927
-0.0428767
-0.0419696
-0.0410707
-0.0401795
-0.0392953
-0.0384177
-0.0375458
-0.0366792
-0.0358173
-0.0349592
-0.0341045
-0.0332524
-0.0324022
-0.0315533
-0.030705
-0.0298565
-0.0290072
-0.0281563
-0.0273032
-0.0264472
-0.0255875
-0.0247237
-0.023855
-0.0229809
-0.022101
-0.0212149
-0.0203222
-0.0194229
-0.0185168
-0.0176042
-0.0166853
-0.0157608
-0.0148313
-0.013898
-0.012962
-0.0120251
-0.0110891
-0.0101561
-0.0092285
-0.00830906
-0.00740029
-0.006506
-0.00562661
-0.00477169
-0.00392665
-0.00313604
-0.00229957
-0.00165705
-0.00065738
-0.000543724
0.0014573
-0.000713995
0.00604138
-0.0464039
-0.0454636
-0.0445335
-0.0436132
-0.0427021
-0.0417996
-0.0409052
-0.0400183
-0.0391383
-0.0382646
-0.0373965
-0.0365335
-0.035675
-0.0348202
-0.0339686
-0.0331194
-0.032272
-0.0314257
-0.0305798
-0.0297336
-0.0288864
-0.0280376
-0.0271863
-0.026332
-0.025474
-0.0246116
-0.0237444
-0.0228717
-0.0219931
-0.0211082
-0.0202167
-0.0193186
-0.0184137
-0.0175023
-0.0165847
-0.0156615
-0.0147334
-0.0138016
-0.0128673
-0.0119321
-0.0109979
-0.0100668
-0.00914133
-0.00822409
-0.00731754
-0.00642559
-0.00554838
-0.00469583
-0.0038524
-0.00306437
-0.00222724
-0.00158972
-0.000579907
-0.000487243
0.00156734
-0.000711589
0.0063012
-0.0462259
-0.0452904
-0.044365
-0.0434492
-0.0425424
-0.0416441
-0.0407537
-0.0398707
-0.0389943
-0.0381241
-0.0372594
-0.0363996
-0.0355441
-0.0346922
-0.0338433
-0.0329967
-0.0321517
-0.0313077
-0.0304639
-0.0296197
-0.0287744
-0.0279273
-0.0270777
-0.0262249
-0.0253682
-0.0245072
-0.0236412
-0.0227696
-0.0218921
-0.0210083
-0.0201179
-0.0192208
-0.018317
-0.0174067
-0.0164902
-0.0155682
-0.0146414
-0.013711
-0.0127782
-0.0118446
-0.0109121
-0.00998296
-0.00905943
-0.00814427
-0.00723985
-0.00635013
-0.00547503
-0.00462474
-0.00378292
-0.00299732
-0.00215973
-0.00152682
-0.000507906
-0.000434452
0.0016692
-0.000708921
0.00654187
-0.0460652
-0.045134
-0.0442127
-0.0433009
-0.042398
-0.0415034
-0.0406165
-0.0397368
-0.0388637
-0.0379966
-0.0371349
-0.0362779
-0.035425
-0.0345757
-0.0337291
-0.0328848
-0.0320419
-0.0311998
-0.0303579
-0.0295155
-0.0286717
-0.0278261
-0.0269779
-0.0261263
-0.0252709
-0.024411
-0.023546
-0.0226755
-0.0217989
-0.020916
-0.0200265
-0.0191303
-0.0182275
-0.0173181
-0.0164027
-0.0154817
-0.0145561
-0.013627
-0.0126955
-0.0117634
-0.0108326
-0.00990516
-0.00898347
-0.00807026
-0.00716786
-0.00628023
-0.00540713
-0.00455897
-0.00371871
-0.00293538
-0.00209752
-0.0014688
-0.000441791
-0.000385737
0.0017624
-0.000706126
0.0067622
-0.0459219
-0.0449945
-0.0440769
-0.0431686
-0.042269
-0.0413776
-0.0404938
-0.0396171
-0.0387468
-0.0378824
-0.0370232
-0.0361687
-0.0353181
-0.0344709
-0.0336265
-0.032784
-0.031943
-0.0311026
-0.0302623
-0.0294213
-0.0285789
-0.0277346
-0.0268875
-0.026037
-0.0251826
-0.0243237
-0.0234596
-0.0225898
-0.0217141
-0.020832
-0.0199433
-0.0190479
-0.0181458
-0.0172373
-0.0163228
-0.0154028
-0.0144783
-0.0135502
-0.01262
-0.0116893
-0.0107599
-0.0098341
-0.00891411
-0.0080027
-0.00710216
-0.00621646
-0.00534522
-0.00449904
-0.00366026
-0.00287903
-0.00204102
-0.00141607
-0.00038195
-0.00034146
0.00184649
-0.000703325
0.00696107
-0.0457963
-0.0448721
-0.0439577
-0.0430523
-0.0421557
-0.0412671
-0.0403859
-0.0395117
-0.0386439
-0.0377818
-0.0369248
-0.0360723
-0.0352238
-0.0343784
-0.0335357
-0.0326949
-0.0318554
-0.0310164
-0.0301774
-0.0293377
-0.0284965
-0.0276532
-0.0268071
-0.0259575
-0.025104
-0.0242458
-0.0233824
-0.0225134
-0.0216383
-0.0207569
-0.0198688
-0.0189741
-0.0180727
-0.0171649
-0.0162512
-0.0153321
-0.0144085
-0.0134814
-0.0125523
-0.0116229
-0.0106948
-0.00977041
-0.00885195
-0.00794217
-0.00704331
-0.00615938
-0.00528984
-0.00444544
-0.00360804
-0.00282869
-0.00199064
-0.00136902
-0.000328745
-0.000301952
0.00192104
-0.000700628
0.00713747
-0.0456884
-0.044767
-0.0438552
-0.0429524
-0.0420582
-0.0411719
-0.040293
-0.039421
-0.0385552
-0.037695
-0.0368399
-0.0359891
-0.0351422
-0.0342984
-0.0334572
-0.0326177
-0.0317795
-0.0309418
-0.0301039
-0.0292651
-0.0284249
-0.0275824
-0.0267371
-0.0258884
-0.0250355
-0.0241779
-0.0233152
-0.0224467
-0.0215722
-0.0206913
-0.0198037
-0.0189096
-0.0180088
-0.0171016
-0.0161886
-0.0152702
-0.0143474
-0.0134212
-0.0124931
-0.0115647
-0.0106378
-0.00971467
-0.00879756
-0.00788922
-0.00699185
-0.00610947
-0.00524144
-0.00439863
-0.00356246
-0.00278476
-0.00194674
-0.00132802
-0.000282501
-0.000267511
0.00198567
-0.000698133
0.00729047
-0.0455984
-0.0446792
-0.0437696
-0.0428689
-0.0419767
-0.0410924
-0.0402153
-0.039345
-0.0384809
-0.0376223
-0.0367687
-0.0359194
-0.0350738
-0.0342313
-0.0333912
-0.0325529
-0.0317157
-0.0308789
-0.0300419
-0.029204
-0.0283645
-0.0275228
-0.0266781
-0.0258299
-0.0249776
-0.0241206
-0.0232583
-0.0223903
-0.0215162
-0.0206357
-0.0197486
-0.0188549
-0.0179546
-0.017048
-0.0161355
-0.0152177
-0.0142955
-0.0133701
-0.0124429
-0.0115153
-0.0105895
-0.00966739
-0.00875143
-0.00784432
-0.00694823
-0.00606717
-0.00520044
-0.00435898
-0.00352389
-0.0027476
-0.00190965
-0.00129336
-0.000243509
-0.0002384
0.00204006
-0.000695924
0.00741925
-0.0455263
-0.0446089
-0.043701
-0.042802
-0.0419114
-0.0410285
-0.040153
-0.039284
-0.0384212
-0.0375639
-0.0367115
-0.0358633
-0.0350188
-0.0341772
-0.0333381
-0.0325006
-0.0316642
-0.0308282
-0.0299919
-0.0291546
-0.0283157
-0.0274745
-0.0266304
-0.0257827
-0.0249308
-0.0240741
-0.0232122
-0.0223446
-0.0214708
-0.0205907
-0.0197039
-0.0188106
-0.0179107
-0.0170044
-0.0160924
-0.0151751
-0.0142535
-0.0133287
-0.0124021
-0.0114753
-0.0105502
-0.00962902
-0.008714
-0.00780789
-0.00691284
-0.00603287
-0.0051672
-0.00432685
-0.00349265
-0.00271751
-0.00187964
-0.00126531
-0.000212016
-0.000214841
0.00208392
-0.000694072
0.00752313
-0.0454721
-0.0445561
-0.0436495
-0.0427517
-0.0418622
-0.0409806
-0.040106
-0.0392382
-0.0383763
-0.0375199
-0.0366684
-0.035821
-0.0349773
-0.0341365
-0.033298
-0.0324612
-0.0316254
-0.0307899
-0.0299542
-0.0291174
-0.0282789
-0.0274381
-0.0265943
-0.0257469
-0.0248953
-0.0240389
-0.0231773
-0.0223099
-0.0214364
-0.0205565
-0.0196701
-0.018777
-0.0178773
-0.0169714
-0.0160597
-0.0151427
-0.0142216
-0.0132972
-0.0123711
-0.0114449
-0.0105204
-0.00959991
-0.00868562
-0.00778027
-0.00688602
-0.00600688
-0.00514202
-0.00430252
-0.00346899
-0.00269473
-0.00185694
-0.00124409
-0.000188223
-0.000197018
0.00211701
-0.000692636
0.00760154
-0.045436
-0.0445208
-0.0436151
-0.0427181
-0.0418294
-0.0409485
-0.0400747
-0.0392075
-0.0383463
-0.0374905
-0.0366395
-0.0357927
-0.0349495
-0.0341092
-0.0332712
-0.0324348
-0.0315994
-0.0307643
-0.0299288
-0.0290923
-0.0282541
-0.0274136
-0.0265701
-0.0257229
-0.0248715
-0.0240153
-0.0231539
-0.0222867
-0.0214133
-0.0205336
-0.0196473
-0.0187544
-0.0178549
-0.0169492
-0.0160377
-0.015121
-0.0142001
-0.0132761
-0.0123503
-0.0114245
-0.0105004
-0.00958036
-0.00866655
-0.00776172
-0.00686801
-0.00598943
-0.00512512
-0.00428619
-0.00345313
-0.00267946
-0.00184173
-0.00122986
-0.000172287
-0.000185067
0.00213917
-0.000691659
0.00765405
-0.0454178
-0.0445032
-0.0435978
-0.0427013
-0.041813
-0.0409324
-0.040059
-0.0391921
-0.0383312
-0.0374757
-0.036625
-0.0357785
-0.0349355
-0.0340955
-0.0332577
-0.0324215
-0.0315863
-0.0307514
-0.0299161
-0.0290797
-0.0282417
-0.0274013
-0.0265579
-0.0257108
-0.0248595
-0.0240034
-0.0231421
-0.0222749
-0.0214017
-0.020522
-0.0196358
-0.018743
-0.0178436
-0.016938
-0.0160266
-0.0151101
-0.0141893
-0.0132655
-0.0123399
-0.0114142
-0.0104904
-0.00957055
-0.00865699
-0.00775242
-0.00685898
-0.00598068
-0.00511666
-0.00427801
-0.00344518
-0.00267181
)
;

boundaryField
{