/*--------------------------------*- C++ -*----------------------------------*\
  =========                 |
  \\      /  F ield         | OpenFOAM: The Open Source CFD Toolbox
   \\    /   O peration     | Website:  https://openfoam.org
    \\  /    A nd           | Version:  7
     \\/     M anipulation  |
\*---------------------------------------------------------------------------*/
FoamFile
{
    version     2.0;
    format      ascii;
    class       volScalarField;
    location    "20";
    object      p;
}
// * * * * * * * * * * * * * * * * * * * * * * * * * * * * * * * * * * * * * //

dimensions      [0 2 -2 0 0 0 0];

internalField   nonuniform List<scalar> 
6050
(
-0.317938
-0.318575
-0.318932
-0.318991
-0.318736
-0.318143
-0.317186
-0.315817
-0.31398
-0.311664
-0.308677
-0.305292
-0.300677
-0.31811
-0.318747
-0.319107
-0.319172
-0.318925
-0.318343
-0.317403
-0.316059
-0.314231
-0.311978
-0.308907
-0.305671
-0.300586
-0.318438
-0.319074
-0.319437
-0.319509
-0.319274
-0.31871
-0.317797
-0.316496
-0.314661
-0.312568
-0.309248
-0.306436
-0.300364
-0.318893
-0.319523
-0.319883
-0.319959
-0.319734
-0.319185
-0.31829
-0.317053
-0.315132
-0.31338
-0.309483
-0.307553
-0.299957
-0.319435
-0.320046
-0.320394
-0.320463
-0.320237
-0.31969
-0.318788
-0.31765
-0.315478
-0.314335
-0.309354
-0.308884
-0.299572
-0.320593
-0.320912
-0.320956
-0.320709
-0.320148
-0.319188
-0.318202
-0.315636
-0.314993
-0.309437
-0.309411
-0.299352
-0.321106
-0.321375
-0.321374
-0.32108
-0.320482
-0.319438
-0.318473
-0.315656
-0.315293
-0.309051
-0.309509
-0.299034
-0.321532
-0.321728
-0.321655
-0.321287
-0.320614
-0.319455
-0.318458
-0.315318
-0.315086
-0.308307
-0.308691
-0.298531
-0.321823
-0.321918
-0.321747
-0.321273
-0.32048
-0.319155
-0.318015
-0.314617
-0.314034
-0.307233
-0.306612
-0.297418
-0.321938
-0.321905
-0.321603
-0.320977
-0.320006
-0.318466
-0.316988
-0.313457
-0.31193
-0.30557
-0.303244
-0.295027
-0.321847
-0.321653
-0.321179
-0.320342
-0.31911
-0.317264
-0.31525
-0.311567
-0.308774
-0.302841
-0.298741
-0.291007
-0.321132
-0.320427
-0.31929
-0.317691
-0.315382
-0.31269
-0.308634
-0.304632
-0.29874
-0.293243
-0.28545
-0.320309
-0.319285
-0.317725
-0.315611
-0.312658
-0.309182
-0.3045
-0.299524
-0.29331
-0.286908
-0.278853
-0.319138
-0.317669
-0.315538
-0.312723
-0.308983
-0.304642
-0.299217
-0.293509
-0.286853
-0.279988
-0.271747
-0.317557
-0.315478
-0.312614
-0.308931
-0.304328
-0.299106
-0.292992
-0.286763
-0.279755
-0.272775
-0.264484
-0.312619
-0.308872
-0.304225
-0.298768
-0.292739
-0.286101
-0.279521
-0.272326
-0.265488
-0.257238
-0.309034
-0.304307
-0.2987
-0.292469
-0.285777
-0.2788
-0.271971
-0.264755
-0.258203
-0.250063
-0.298991
-0.292515
-0.285635
-0.278452
-0.271276
-0.264238
-0.257126
-0.25082
-0.24291
-0.293062
-0.285852
-0.278458
-0.270941
-0.263641
-0.256434
-0.249474
-0.243127
-0.235654
-0.278871
-0.271087
-0.263357
-0.255965
-0.248665
-0.24182
-0.235079
-0.228185
-0.271694
-0.263621
-0.255755
-0.248292
-0.240986
-0.234184
-0.227182
-0.220533
-0.256115
-0.248157
-0.240653
-0.233375
-0.226554
-0.219694
-0.213375
-0.248593
-0.240574
-0.233053
-0.225808
-0.219067
-0.212358
-0.206311
-0.233002
-0.225479
-0.218302
-0.211652
-0.205108
-0.1994
-0.217921
-0.210823
-0.204291
-0.197954
-0.192483
-0.203357
-0.196951
-0.190799
-0.185565
-0.189597
-0.183641
-0.178605
-0.176437
-0.171588
-0.176437
-0.171588
-0.189597
-0.183641
-0.178606
-0.203357
-0.196951
-0.190799
-0.185566
-0.217921
-0.210823
-0.204291
-0.197954
-0.192483
-0.233002
-0.225479
-0.218302
-0.211652
-0.205108
-0.199401
-0.248594
-0.240574
-0.233054
-0.225808
-0.219067
-0.212358
-0.206311
-0.256115
-0.248157
-0.240653
-0.233375
-0.226554
-0.219694
-0.213375
-0.271694
-0.263621
-0.255755
-0.248292
-0.240986
-0.234185
-0.227182
-0.220533
-0.278871
-0.271087
-0.263358
-0.255965
-0.248665
-0.24182
-0.235079
-0.228186
-0.293062
-0.285852
-0.278458
-0.270941
-0.263641
-0.256434
-0.249474
-0.243128
-0.235655
-0.298991
-0.292515
-0.285635
-0.278452
-0.271276
-0.264238
-0.257126
-0.250821
-0.24291
-0.309034
-0.304306
-0.2987
-0.292469
-0.285777
-0.2788
-0.271971
-0.264755
-0.258203
-0.250063
-0.312619
-0.308872
-0.304225
-0.298768
-0.292739
-0.286101
-0.279521
-0.272327
-0.265489
-0.257238
-0.317557
-0.315478
-0.312613
-0.308931
-0.304328
-0.299106
-0.292992
-0.286763
-0.279755
-0.272775
-0.264484
-0.319138
-0.317669
-0.315538
-0.312723
-0.308983
-0.304642
-0.299217
-0.293509
-0.286853
-0.279988
-0.271748
-0.320309
-0.319285
-0.317725
-0.31561
-0.312657
-0.309182
-0.3045
-0.299524
-0.29331
-0.286908
-0.278853
-0.321132
-0.320427
-0.31929
-0.317691
-0.315381
-0.31269
-0.308634
-0.304632
-0.29874
-0.293243
-0.285451
-0.321847
-0.321653
-0.321179
-0.320341
-0.31911
-0.317264
-0.31525
-0.311567
-0.308774
-0.302841
-0.298741
-0.291008
-0.321938
-0.321905
-0.321603
-0.320977
-0.320006
-0.318466
-0.316988
-0.313457
-0.31193
-0.30557
-0.303245
-0.295027
-0.321823
-0.321918
-0.321747
-0.321273
-0.32048
-0.319155
-0.318015
-0.314617
-0.314034
-0.307233
-0.306612
-0.297419
-0.321532
-0.321727
-0.321655
-0.321287
-0.320614
-0.319455
-0.318458
-0.315318
-0.315086
-0.308307
-0.308691
-0.298532
-0.321106
-0.321375
-0.321374
-0.32108
-0.320482
-0.319438
-0.318472
-0.315656
-0.315293
-0.309051
-0.309509
-0.299035
-0.320593
-0.320912
-0.320956
-0.320709
-0.320147
-0.319188
-0.318201
-0.315636
-0.314993
-0.309437
-0.309411
-0.299353
-0.319435
-0.320046
-0.320394
-0.320463
-0.320236
-0.31969
-0.318787
-0.31765
-0.315478
-0.314335
-0.309354
-0.308885
-0.299572
-0.318893
-0.319523
-0.319883
-0.319959
-0.319734
-0.319184
-0.31829
-0.317053
-0.315132
-0.31338
-0.309483
-0.307553
-0.299957
-0.318438
-0.319074
-0.319437
-0.319509
-0.319274
-0.31871
-0.317796
-0.316496
-0.314661
-0.312568
-0.309248
-0.306436
-0.300364
-0.31811
-0.318747
-0.319107
-0.319172
-0.318925
-0.318343
-0.317403
-0.316059
-0.314231
-0.311978
-0.308907
-0.305671
-0.300586
-0.317938
-0.318575
-0.318932
-0.318991
-0.318736
-0.318143
-0.317186
-0.315817
-0.31398
-0.311664
-0.308677
-0.305292
-0.300677
-0.297943
-0.29596
-0.293844
-0.29157
-0.289113
-0.28645
-0.283564
-0.280413
-0.276958
-0.273154
-0.268951
-0.264294
-0.259122
-0.253374
-0.246986
-0.239894
-0.232039
-0.22337
-0.213848
-0.203455
-0.192193
-0.180089
-0.167185
-0.153653
-0.139605
-0.125213
-0.11066
-0.096205
-0.0820576
-0.068467
-0.0556433
-0.0437804
-0.0330305
-0.0235023
-0.0152562
-0.00829635
-0.00259952
0.00192779
0.00535046
0.00784301
0.00944525
0.0104108
0.0106709
0.0105918
0.00989097
0.00913874
0.00766862
0.0064493
0.00411421
0.00234981
-0.298207
-0.296241
-0.294139
-0.291871
-0.289416
-0.286801
-0.283947
-0.280831
-0.277412
-0.273648
-0.269488
-0.264875
-0.259748
-0.254048
-0.247708
-0.240663
-0.232853
-0.224225
-0.214741
-0.204379
-0.193141
-0.181063
-0.168146
-0.154621
-0.140563
-0.126161
-0.111538
-0.0970599
-0.0828771
-0.0692401
-0.0563677
-0.0444553
-0.0336557
-0.0240787
-0.0157847
-0.00877933
-0.00303811
0.00153031
0.00499327
0.00752228
0.00916078
0.0101583
0.0104513
0.0103989
0.00972807
0.00899676
0.00755683
0.0063517
0.00405556
0.0022965
-0.298643
-0.296679
-0.294592
-0.292375
-0.290006
-0.287409
-0.284597
-0.281533
-0.278176
-0.27448
-0.270394
-0.265862
-0.260822
-0.255208
-0.248955
-0.241997
-0.234271
-0.225723
-0.216312
-0.206015
-0.194838
-0.182866
-0.169786
-0.156336
-0.142274
-0.127834
-0.113213
-0.0986671
-0.0844186
-0.0707093
-0.0577584
-0.0457639
-0.0348793
-0.0252168
-0.0168369
-0.00974727
-0.0039226
0.000725703
0.00426749
0.00686993
0.00858116
0.0096441
0.010004
0.010007
0.00939774
0.00871005
0.00733167
0.00615664
0.00393857
0.00219332
-0.299532
-0.297325
-0.295164
-0.292973
-0.290619
-0.288077
-0.285326
-0.28233
-0.279049
-0.275437
-0.271444
-0.267011
-0.262048
-0.256547
-0.250404
-0.243557
-0.235941
-0.227499
-0.218186
-0.207978
-0.196871
-0.184893
-0.172044
-0.158561
-0.144505
-0.130057
-0.115416
-0.10083
-0.0865282
-0.0727521
-0.0597224
-0.0476391
-0.0366572
-0.0268912
-0.018402
-0.0112004
-0.00526066
-0.000498114
0.00315856
0.00587144
0.00769214
0.00885612
0.00931797
0.00940816
0.00889391
0.00827542
0.0069914
0.00586542
0.00376417
0.00204705
-0.300044
-0.297978
-0.295667
-0.293441
-0.291129
-0.288638
-0.285939
-0.283002
-0.27979
-0.276256
-0.272348
-0.268007
-0.263172
-0.257778
-0.251752
-0.245027
-0.237536
-0.229221
-0.220034
-0.209948
-0.198955
-0.187076
-0.174351
-0.160938
-0.146946
-0.132545
-0.117936
-0.103358
-0.0890442
-0.0752364
-0.0621556
-0.0500027
-0.0389336
-0.0290645
-0.0204578
-0.0131276
-0.00704935
-0.00214355
0.00166099
0.00451978
0.00648678
0.00778798
0.00838818
0.00859841
0.00821391
0.00769285
0.00653658
0.00548203
0.00353451
0.00186714
-0.300041
-0.298456
-0.296058
-0.29372
-0.291404
-0.288945
-0.286282
-0.283389
-0.280231
-0.276761
-0.272926
-0.268668
-0.263924
-0.258631
-0.252719
-0.246118
-0.238761
-0.230587
-0.221548
-0.211614
-0.200775
-0.189053
-0.176497
-0.163228
-0.149369
-0.135087
-0.120581
-0.10608
-0.091819
-0.078037
-0.0649539
-0.0527695
-0.0416399
-0.0316826
-0.022962
-0.0154962
-0.00926375
-0.00419142
-0.00021043
0.00282657
0.00497455
0.00644755
0.00722156
0.00758435
0.00736318
0.00696878
0.00597239
0.00501439
0.00325368
0.00166449
-0.299412
-0.298226
-0.29598
-0.293592
-0.291244
-0.288795
-0.286155
-0.283292
-0.280171
-0.276748
-0.272968
-0.268778
-0.264115
-0.258915
-0.253109
-0.246629
-0.239407
-0.231384
-0.222513
-0.212763
-0.202124
-0.190615
-0.178286
-0.165236
-0.151592
-0.137515
-0.123196
-0.108856
-0.0947256
-0.0810392
-0.0680141
-0.055847
-0.0446936
-0.0346719
-0.0258492
-0.0182483
-0.0118526
-0.00659658
-0.00241615
0.000826178
0.00318524
0.00486053
0.00584007
0.00638515
0.0063575
0.00611748
0.00530974
0.00447447
0.00292816
0.00144979
-0.297949
-0.296945
-0.295021
-0.292751
-0.290401
-0.287944
-0.285319
-0.282487
-0.279404
-0.276019
-0.272285
-0.268152
-0.263562
-0.25845
-0.252749
-0.246393
-0.239318
-0.231466
-0.222789
-0.213257
-0.202858
-0.191614
-0.179576
-0.16683
-0.15349
-0.139709
-0.125668
-0.111577
-0.0976577
-0.0841396
-0.0712357
-0.0591382
-0.0480012
-0.0379431
-0.0290346
-0.0213045
-0.0147422
-0.00929197
-0.0048956
-0.00142767
0.00116606
0.00306789
0.00427872
0.00503073
0.00522167
0.00515996
0.00456468
0.00387729
0.0025665
0.0012321
-0.295554
-0.294382
-0.292833
-0.290844
-0.288565
-0.286105
-0.283504
-0.280728
-0.277704
-0.27437
-0.270689
-0.266621
-0.262112
-0.257099
-0.251516
-0.245301
-0.238394
-0.23074
-0.222292
-0.213022
-0.202918
-0.191997
-0.180308
-0.167932
-0.154984
-0.141593
-0.127921
-0.114162
-0.100531
-0.0872491
-0.0745254
-0.062547
-0.0514652
-0.0413991
-0.0324234
-0.0245735
-0.0178467
-0.012198
-0.00757619
-0.00386999
-0.00102561
0.00111962
0.00258019
0.00355764
0.00398562
0.00412115
0.00375632
0.00323905
0.0021784
0.00101811
-0.291866
-0.290278
-0.289159
-0.287607
-0.285489
-0.283061
-0.28052
-0.277846
-0.274921
-0.27167
-0.268069
-0.264093
-0.259691
-0.254803
-0.249366
-0.243324
-0.23662
-0.229203
-0.221028
-0.212068
-0.202311
-0.191773
-0.180496
-0.168556
-0.156058
-0.143134
-0.129913
-0.116563
-0.103285
-0.0902969
-0.0778031
-0.0659858
-0.0549932
-0.0449452
-0.035921
-0.0279637
-0.0210787
-0.0152332
-0.0103834
-0.00643377
-0.00333057
-0.000932507
0.000788694
0.00200366
0.0026804
0.00302697
0.00290412
0.00257525
0.00177355
0.000812108
-0.286638
-0.284639
-0.283943
-0.282906
-0.28103
-0.278715
-0.276321
-0.273823
-0.271052
-0.267928
-0.26445
-0.260608
-0.256355
-0.251631
-0.24638
-0.240551
-0.234092
-0.226954
-0.219098
-0.210495
-0.201136
-0.191032
-0.180219
-0.168765
-0.156768
-0.144351
-0.131638
-0.118757
-0.105885
-0.093233
-0.0810059
-0.069382
-0.0585059
-0.0484985
-0.0394435
-0.0313926
-0.0243592
-0.0183237
-0.0132494
-0.00905782
-0.00569466
-0.003041
-0.00105511
0.000403498
0.00133473
0.00190116
0.00202607
0.0018992
0.00136057
0.000616303
-0.279789
-0.277665
-0.27774
-0.277117
-0.275326
-0.273178
-0.271051
-0.268822
-0.266269
-0.263327
-0.260025
-0.256365
-0.252303
-0.247784
-0.24276
-0.237184
-0.231008
-0.224188
-0.216688
-0.20848
-0.199553
-0.189917
-0.179601
-0.168667
-0.157198
-0.14531
-0.133125
-0.120746
-0.108314
-0.0960276
-0.0840912
-0.0726822
-0.0619424
-0.0519937
-0.0429241
-0.0347937
-0.0276243
-0.0214093
-0.0161187
-0.0116917
-0.00807308
-0.00516642
-0.00291727
-0.00121392
-2.72966e-05
0.000763467
0.00113771
0.00122141
0.000946325
0.000431338
-0.272058
-0.269846
-0.270652
-0.270688
-0.2691
-0.266928
-0.265048
-0.263145
-0.260873
-0.258172
-0.255097
-0.251661
-0.247826
-0.243546
-0.23878
-0.233486
-0.22762
-0.221143
-0.21402
-0.206226
-0.197748
-0.188593
-0.178786
-0.168379
-0.157446
-0.14609
-0.134426
-0.122553
-0.110574
-0.0986677
-0.0870345
-0.0758525
-0.0652617
-0.0553855
-0.0463151
-0.0381194
-0.0308272
-0.0244455
-0.01895
-0.0142976
-0.010432
-0.00727879
-0.00477181
-0.00282637
-0.00138715
-0.000370981
0.000250986
0.000549872
0.000535776
0.000256753
-0.264216
-0.262012
-0.263362
-0.263816
-0.262522
-0.260622
-0.258822
-0.257147
-0.25516
-0.252744
-0.249941
-0.246762
-0.24318
-0.239165
-0.23468
-0.229687
-0.224147
-0.218024
-0.211285
-0.203908
-0.195879
-0.187202
-0.177895
-0.168004
-0.157594
-0.146755
-0.135594
-0.12421
-0.112678
-0.101153
-0.089826
-0.0788757
-0.068441
-0.0586469
-0.0495874
-0.0413393
-0.0339378
-0.0274029
-0.0217156
-0.0168498
-0.0127481
-0.00935713
-0.00660034
-0.00441807
-0.00273154
-0.00149155
-0.000625604
-0.000109922
0.0001324
9.14329e-05
-0.256616
-0.25451
-0.256222
-0.25691
-0.255844
-0.254309
-0.252839
-0.251281
-0.249505
-0.24737
-0.244852
-0.241941
-0.238622
-0.234877
-0.230678
-0.225987
-0.220772
-0.214998
-0.208636
-0.201664
-0.194067
-0.185847
-0.17702
-0.16762
-0.157707
-0.147358
-0.136672
-0.125746
-0.114644
-0.10349
-0.0924663
-0.0817469
-0.071471
-0.0617655
-0.0527261
-0.0444371
-0.0369392
-0.0302646
-0.024399
-0.0193324
-0.0150066
-0.0113881
-0.00839097
-0.00597874
-0.00405173
-0.00259136
-0.00148651
-0.000754922
-0.000261555
-6.59883e-05
-0.24939
-0.24749
-0.249426
-0.25019
-0.24931
-0.248114
-0.246936
-0.245447
-0.243884
-0.242028
-0.239811
-0.237191
-0.234159
-0.230705
-0.226804
-0.222426
-0.217539
-0.212114
-0.206122
-0.199543
-0.192362
-0.184578
-0.176204
-0.167268
-0.157821
-0.147932
-0.13769
-0.127189
-0.116488
-0.105692
-0.0949622
-0.0844697
-0.0743524
-0.0647392
-0.0557272
-0.0474073
-0.0398245
-0.0330231
-0.0269921
-0.0217374
-0.0171998
-0.0133643
-0.0101368
-0.00750224
-0.00534236
-0.00366626
-0.00232838
-0.00138364
-0.000645016
-0.000216853
-0.242579
-0.240997
-0.243013
-0.243725
-0.243067
-0.24231
-0.241567
-0.240462
-0.238819
-0.237122
-0.235164
-0.232805
-0.230037
-0.226853
-0.22323
-0.219143
-0.214565
-0.209466
-0.203821
-0.19761
-0.190817
-0.18344
-0.175486
-0.166981
-0.157966
-0.148504
-0.138672
-0.128561
-0.118233
-0.107773
-0.0973253
-0.0870528
-0.0770914
-0.0675721
-0.0585925
-0.0502496
-0.0425921
-0.0356751
-0.0294911
-0.0240603
-0.0193229
-0.015281
-0.0118334
-0.0089848
-0.0066002
-0.00471393
-0.00314948
-0.0019957
-0.00101773
-0.000362519
-0.236226
-0.235074
-0.236964
-0.237478
-0.237002
-0.23653
-0.235913
-0.234897
-0.23355
-0.232143
-0.230432
-0.228364
-0.22591
-0.223037
-0.219726
-0.215957
-0.211705
-0.206943
-0.201647
-0.195798
-0.189382
-0.182395
-0.174841
-0.166741
-0.158131
-0.149066
-0.139615
-0.129864
-0.119878
-0.109732
-0.0995539
-0.0894936
-0.079685
-0.0702609
-0.0613188
-0.0529613
-0.0452396
-0.0382191
-0.0318948
-0.0263004
-0.0213757
-0.0171383
-0.0134812
-0.0104269
-0.00782592
-0.00573508
-0.00395067
-0.00259222
-0.00138091
-0.000504911
-0.230398
-0.229777
-0.231279
-0.231624
-0.231534
-0.231516
-0.231268
-0.230641
-0.229603
-0.228104
-0.226469
-0.224601
-0.222373
-0.219736
-0.216676
-0.213175
-0.209205
-0.204739
-0.199756
-0.194234
-0.188161
-0.181529
-0.174341
-0.166613
-0.158375
-0.149676
-0.140576
-0.131156
-0.121486
-0.111637
-0.101716
-0.0918604
-0.0822002
-0.0728696
-0.063966
-0.0555968
-0.0478156
-0.040697
-0.0342387
-0.0284866
-0.0233811
-0.0189536
-0.015093
-0.0118371
-0.00902533
-0.00673285
-0.00473415
-0.00317404
-0.00173549
-0.000646605
-0.225354
-0.225143
-0.225579
-0.225458
-0.225531
-0.225643
-0.225484
-0.225039
-0.22429
-0.223202
-0.2219
-0.220332
-0.218429
-0.216128
-0.213405
-0.21024
-0.206608
-0.202486
-0.197851
-0.192685
-0.186972
-0.180706
-0.173887
-0.166528
-0.158654
-0.150306
-0.141537
-0.132417
-0.12302
-0.113431
-0.103744
-0.0940787
-0.0845572
-0.0753141
-0.0664466
-0.0580674
-0.0502316
-0.0430232
-0.0364417
-0.0305446
-0.0252721
-0.0206686
-0.0166188
-0.013175
-0.0101653
-0.00768331
-0.00548112
-0.00373076
-0.00207216
-0.000787577
-0.221975
-0.223068
-0.222561
-0.222428
-0.222625
-0.222762
-0.222701
-0.222439
-0.221915
-0.220886
-0.219452
-0.217907
-0.216075
-0.213865
-0.211248
-0.208199
-0.204694
-0.200707
-0.196217
-0.191205
-0.185656
-0.179563
-0.172927
-0.16576
-0.158083
-0.149938
-0.141372
-0.132455
-0.123256
-0.113859
-0.104351
-0.0948514
-0.0854734
-0.0763509
-0.0675732
-0.0592583
-0.0514536
-0.0442531
-0.0376485
-0.0317111
-0.0263724
-0.0216942
-0.0175475
-0.0140085
-0.0108824
-0.00829358
-0.00596021
-0.00409697
-0.00228585
-0.000883171
-0.219154
-0.220711
-0.220162
-0.220085
-0.220347
-0.220507
-0.220449
-0.220154
-0.219552
-0.218578
-0.217338
-0.215874
-0.214103
-0.211957
-0.209406
-0.206429
-0.202999
-0.199094
-0.194691
-0.189774
-0.184327
-0.178346
-0.171828
-0.164788
-0.157246
-0.149241
-0.140819
-0.132048
-0.122994
-0.113741
-0.104372
-0.0950046
-0.0857462
-0.0767285
-0.0680366
-0.0597893
-0.0520311
-0.0448591
-0.038263
-0.0323195
-0.0269578
-0.0222473
-0.0180546
-0.0144662
-0.0112792
-0.008631
-0.00622642
-0.00429811
-0.00240424
-0.000933689
-0.215989
-0.217941
-0.21751
-0.21747
-0.21779
-0.217994
-0.217956
-0.217672
-0.217115
-0.216238
-0.215074
-0.213651
-0.211923
-0.209828
-0.207337
-0.204424
-0.201067
-0.197241
-0.192925
-0.188103
-0.182761
-0.176893
-0.1705
-0.163593
-0.156192
-0.148336
-0.140069
-0.131455
-0.122559
-0.113462
-0.104247
-0.0950268
-0.0859032
-0.0770051
-0.0684142
-0.0602484
-0.0525505
-0.0454188
-0.0388425
-0.0329019
-0.0275256
-0.0227886
-0.0185557
-0.0149206
-0.0116761
-0.00896881
-0.00649484
-0.00449963
-0.00252471
-0.00098286
-0.212864
-0.215086
-0.214812
-0.214794
-0.215159
-0.215418
-0.21542
-0.215174
-0.214674
-0.213873
-0.212767
-0.21139
-0.209708
-0.207667
-0.205237
-0.202392
-0.199109
-0.195364
-0.191138
-0.186414
-0.181179
-0.175428
-0.169161
-0.162389
-0.155133
-0.147428
-0.139317
-0.130863
-0.122126
-0.113188
-0.104127
-0.0950555
-0.0860678
-0.0772903
-0.0688015
-0.0607181
-0.0530813
-0.0459907
-0.0394347
-0.0334973
-0.0281063
-0.0233425
-0.0190688
-0.0153861
-0.012083
-0.00931496
-0.00677015
-0.00470589
-0.00264862
-0.00103208
-0.209663
-0.212142
-0.212058
-0.212065
-0.212466
-0.212785
-0.212838
-0.212636
-0.212185
-0.211446
-0.210406
-0.209084
-0.207455
-0.205473
-0.203107
-0.200333
-0.197126
-0.193467
-0.189333
-0.18471
-0.179585
-0.173953
-0.167814
-0.16118
-0.15407
-0.146518
-0.138566
-0.130271
-0.121696
-0.112918
-0.104014
-0.0950913
-0.0862406
-0.0775848
-0.0691991
-0.0611993
-0.0536245
-0.0465756
-0.0400406
-0.0341065
-0.028701
-0.0239098
-0.0195947
-0.0158632
-0.0125003
-0.00966991
-0.00705258
-0.00491716
-0.00277594
-0.00108141
-0.206378
-0.209111
-0.209225
-0.209268
-0.209699
-0.21008
-0.21019
-0.210036
-0.209634
-0.208956
-0.207984
-0.206722
-0.20515
-0.20323
-0.200931
-0.19823
-0.195104
-0.191531
-0.187492
-0.182972
-0.177959
-0.172449
-0.166441
-0.159948
-0.152986
-0.145589
-0.137797
-0.129666
-0.121254
-0.112639
-0.103893
-0.0951214
-0.0864099
-0.077878
-0.0695976
-0.0616833
-0.0541726
-0.0471673
-0.0406547
-0.034725
-0.0293057
-0.0244875
-0.020131
-0.0163501
-0.0129267
-0.0100325
-0.00734142
-0.00513274
-0.00290641
-0.00113062
-0.203075
-0.206005
-0.206314
-0.206404
-0.206862
-0.207302
-0.207476
-0.207375
-0.207025
-0.206409
-0.205504
-0.204305
-0.202793
-0.200938
-0.198709
-0.196083
-0.193039
-0.189556
-0.185614
-0.1812
-0.176302
-0.170916
-0.165041
-0.15869
-0.151878
-0.144639
-0.137009
-0.129044
-0.120798
-0.112347
-0.103762
-0.0951437
-0.0865734
-0.0781674
-0.0699946
-0.062168
-0.0547235
-0.0477635
-0.041275
-0.0353509
-0.029919
-0.0250741
-0.0206764
-0.0168457
-0.0133613
-0.010402
-0.00763618
-0.00535221
-0.00303986
-0.00117961
-0.199761
-0.202831
-0.203328
-0.203479
-0.203963
-0.20446
-0.204701
-0.204659
-0.204364
-0.20381
-0.202973
-0.201838
-0.20039
-0.198601
-0.196445
-0.193898
-0.190938
-0.187546
-0.183704
-0.179398
-0.174617
-0.169356
-0.163617
-0.15741
-0.150751
-0.143671
-0.136205
-0.128407
-0.120329
-0.112045
-0.103622
-0.0951585
-0.0867311
-0.0784527
-0.0703895
-0.0626524
-0.0552762
-0.0483632
-0.0419006
-0.0359833
-0.0305397
-0.0256686
-0.0212302
-0.0173492
-0.0138034
-0.0107779
-0.00793646
-0.00557517
-0.00317613
-0.00122829
-0.196419
-0.199595
-0.200276
-0.200499
-0.201009
-0.201559
-0.201869
-0.201891
-0.201655
-0.201163
-0.200392
-0.199325
-0.197944
-0.196225
-0.194143
-0.191676
-0.188803
-0.185505
-0.181765
-0.177569
-0.172907
-0.167774
-0.162172
-0.156111
-0.149606
-0.142687
-0.135387
-0.127757
-0.119848
-0.111733
-0.103473
-0.0951655
-0.0868825
-0.0787334
-0.0707814
-0.0631356
-0.0558294
-0.048965
-0.0425299
-0.0366207
-0.0311667
-0.0262699
-0.0217912
-0.0178597
-0.0142524
-0.0111594
-0.00824173
-0.00580122
-0.003315
-0.0012766
-0.193052
-0.19631
-0.197165
-0.197468
-0.198008
-0.198608
-0.198987
-0.199076
-0.198901
-0.198472
-0.197769
-0.196771
-0.195459
-0.193812
-0.191807
-0.189423
-0.186639
-0.183437
-0.1798
-0.175716
-0.171174
-0.166172
-0.160708
-0.154794
-0.148445
-0.141687
-0.134554
-0.127095
-0.119357
-0.11141
-0.103315
-0.0951643
-0.0870268
-0.0790082
-0.071169
-0.063616
-0.0563816
-0.0495675
-0.0431615
-0.0372616
-0.0317984
-0.0268765
-0.0223582
-0.0183759
-0.0147071
-0.0115457
-0.0085514
-0.00602984
-0.00345619
-0.00132448
-0.189673
-0.192987
-0.194003
-0.194393
-0.194967
-0.195613
-0.196061
-0.196219
-0.196109
-0.195743
-0.195108
-0.19418
-0.19294
-0.191368
-0.189442
-0.187142
-0.184449
-0.181345
-0.177814
-0.173843
-0.169424
-0.164552
-0.159229
-0.153463
-0.14727
-0.140675
-0.13371
-0.126421
-0.118854
-0.111077
-0.103148
-0.0951544
-0.0871633
-0.0792761
-0.071551
-0.0640923
-0.0569312
-0.0501688
-0.0437936
-0.0379043
-0.0324332
-0.0274869
-0.0229298
-0.0188967
-0.0151666
-0.011936
-0.00886476
-0.00626048
-0.00359936
-0.00137188
-0.186286
-0.189631
-0.190798
-0.191281
-0.191894
-0.192584
-0.193098
-0.193328
-0.193284
-0.192983
-0.192416
-0.19156
-0.190393
-0.188898
-0.187053
-0.18484
-0.182239
-0.179234
-0.17581
-0.171955
-0.167659
-0.16292
-0.157737
-0.15212
-0.146084
-0.139652
-0.132855
-0.125737
-0.118342
-0.110735
-0.102971
-0.0951357
-0.0872914
-0.0795363
-0.0719262
-0.0645628
-0.0574765
-0.0507673
-0.0444244
-0.0385469
-0.0330693
-0.0280995
-0.0235044
-0.0194207
-0.0156296
-0.012329
-0.00918098
-0.00649252
-0.00374412
-0.00141876
-0.182899
-0.186255
-0.18756
-0.188141
-0.188798
-0.189531
-0.190108
-0.190409
-0.190433
-0.1902
-0.189701
-0.188917
-0.187826
-0.186409
-0.184647
-0.182521
-0.180015
-0.177111
-0.173795
-0.170055
-0.165884
-0.161278
-0.156236
-0.150769
-0.144889
-0.138621
-0.131992
-0.125044
-0.117821
-0.110384
-0.102786
-0.0951077
-0.0874103
-0.0797877
-0.0722933
-0.065026
-0.0580157
-0.0513609
-0.0450518
-0.0391874
-0.0337047
-0.0287123
-0.0240802
-0.0199462
-0.0160947
-0.0127237
-0.00949917
-0.00672529
-0.00389002
-0.00146509
-0.179522
-0.182868
-0.184301
-0.184982
-0.185688
-0.186463
-0.1871
-0.187472
-0.187567
-0.1874
-0.186971
-0.18626
-0.185246
-0.183908
-0.18223
-0.180194
-0.177782
-0.17498
-0.171773
-0.168151
-0.164104
-0.159631
-0.154731
-0.149414
-0.14369
-0.137585
-0.131123
-0.124346
-0.117293
-0.110025
-0.102591
-0.0950705
-0.0875197
-0.0800294
-0.0726509
-0.0654804
-0.0585471
-0.0519477
-0.0456737
-0.0398238
-0.0343373
-0.0293232
-0.0246555
-0.0204715
-0.0165605
-0.0131188
-0.00981828
-0.00695806
-0.00403653
-0.00151082
-0.176168
-0.179487
-0.181033
-0.181816
-0.182575
-0.183393
-0.184087
-0.184528
-0.184693
-0.184596
-0.184236
-0.183599
-0.182661
-0.181404
-0.179811
-0.177865
-0.175549
-0.17285
-0.169752
-0.166247
-0.162326
-0.157986
-0.153227
-0.148058
-0.142491
-0.136547
-0.130251
-0.123642
-0.116759
-0.109659
-0.102389
-0.0950241
-0.0876189
-0.0802604
-0.0729978
-0.0659243
-0.0590686
-0.0525255
-0.046288
-0.0404535
-0.0349647
-0.0299302
-0.025228
-0.0209947
-0.0170252
-0.0135128
-0.0101371
-0.00719
-0.00418307
-0.00155592
-0.172852
-0.176124
-0.17777
-0.178656
-0.179473
-0.180333
-0.181082
-0.18159
-0.181825
-0.181796
-0.181507
-0.180942
-0.180082
-0.178906
-0.177398
-0.175543
-0.173324
-0.170727
-0.16774
-0.164351
-0.160555
-0.156347
-0.151729
-0.146707
-0.141294
-0.13551
-0.129379
-0.122938
-0.116222
-0.109287
-0.102179
-0.0949685
-0.0877076
-0.0804799
-0.0733326
-0.066356
-0.0595782
-0.0530921
-0.046892
-0.0410742
-0.0355846
-0.0305307
-0.0257954
-0.0215138
-0.0174869
-0.0139042
-0.0104544
-0.00742024
-0.004329
-0.00160033
-0.169589
-0.172796
-0.174529
-0.175515
-0.176394
-0.177298
-0.178098
-0.17867
-0.178974
-0.179014
-0.178795
-0.178303
-0.17752
-0.176426
-0.175004
-0.173239
-0.171116
-0.168622
-0.165743
-0.162471
-0.158799
-0.154722
-0.150243
-0.145367
-0.140106
-0.13448
-0.128511
-0.122234
-0.115684
-0.108912
-0.101963
-0.0949042
-0.0877857
-0.080687
-0.073654
-0.0667737
-0.0600738
-0.0536451
-0.0474834
-0.0416832
-0.0361941
-0.031122
-0.0263554
-0.0220263
-0.0179436
-0.0142913
-0.0107688
-0.0076478
-0.00447358
-0.00164394
-0.166394
-0.169522
-0.171326
-0.172411
-0.173355
-0.174302
-0.175151
-0.175784
-0.176155
-0.176265
-0.176114
-0.175695
-0.174988
-0.173975
-0.172638
-0.170963
-0.168936
-0.166543
-0.163773
-0.160616
-0.157066
-0.153119
-0.148776
-0.144044
-0.138933
-0.133461
-0.127651
-0.121535
-0.115147
-0.108535
-0.101742
-0.0948318
-0.0878528
-0.0808812
-0.0739608
-0.0671756
-0.0605534
-0.0541821
-0.0480592
-0.0422777
-0.0367904
-0.0317014
-0.026905
-0.0225298
-0.018393
-0.0146721
-0.0110785
-0.0078716
-0.00461605
-0.00168666
-0.163287
-0.166321
-0.168183
-0.169361
-0.170372
-0.171364
-0.172259
-0.17295
-0.173386
-0.173562
-0.173481
-0.173132
-0.172501
-0.171567
-0.170314
-0.168729
-0.166796
-0.164504
-0.16184
-0.158796
-0.155366
-0.151546
-0.147337
-0.142745
-0.13778
-0.132459
-0.126803
-0.120845
-0.114614
-0.108157
-0.101516
-0.0947518
-0.0879092
-0.0810617
-0.0742517
-0.0675601
-0.0610145
-0.0547003
-0.0486167
-0.0428544
-0.0373703
-0.0322658
-0.0274413
-0.0230216
-0.0188326
-0.0150445
-0.0113818
-0.00809046
-0.00475554
-0.00172832
-0.160287
-0.163215
-0.165119
-0.166386
-0.167465
-0.168503
-0.169442
-0.170185
-0.170684
-0.170925
-0.170911
-0.170632
-0.170074
-0.169218
-0.168048
-0.16655
-0.164709
-0.162515
-0.159956
-0.157022
-0.153709
-0.150012
-0.145933
-0.141477
-0.136654
-0.13148
-0.125974
-0.120167
-0.114089
-0.107783
-0.101289
-0.0946654
-0.087955
-0.081228
-0.0745255
-0.0679253
-0.0614549
-0.0551971
-0.0491528
-0.0434103
-0.0379304
-0.0328117
-0.027961
-0.0234985
-0.0192596
-0.0154063
-0.0116768
-0.00830308
-0.00489114
-0.00176871
-0.157414
-0.160226
-0.162159
-0.163508
-0.164655
-0.165739
-0.166719
-0.167512
-0.168068
-0.168373
-0.168423
-0.168212
-0.167725
-0.166944
-0.165855
-0.164441
-0.162691
-0.160592
-0.158133
-0.155307
-0.152106
-0.148529
-0.144576
-0.140251
-0.135564
-0.130531
-0.125169
-0.119508
-0.113576
-0.107415
-0.101063
-0.0945739
-0.0879906
-0.0813797
-0.074781
-0.0682694
-0.0618722
-0.0556696
-0.0496642
-0.0439418
-0.0384671
-0.0333356
-0.0284606
-0.0239575
-0.019671
-0.0157549
-0.0119615
-0.00850798
-0.00502186
-0.0018076
-0.15469
-0.15738
-0.159328
-0.160751
-0.161964
-0.163094
-0.164114
-0.164952
-0.165563
-0.165927
-0.16604
-0.165893
-0.165474
-0.164766
-0.163753
-0.162421
-0.160757
-0.158749
-0.156387
-0.153664
-0.150572
-0.147109
-0.143275
-0.139075
-0.134518
-0.129619
-0.124395
-0.118873
-0.11308
-0.107057
-0.100839
-0.0944788
-0.0880167
-0.0815167
-0.0750173
-0.0685906
-0.0622638
-0.0561147
-0.0501474
-0.0444451
-0.0389764
-0.0338336
-0.0289362
-0.0243948
-0.0200635
-0.0160876
-0.0122333
-0.00870356
-0.00514663
-0.00184467
-0.152136
-0.154701
-0.156653
-0.158142
-0.159419
-0.160594
-0.161651
-0.162531
-0.163191
-0.16361
-0.163782
-0.163696
-0.163342
-0.162703
-0.161763
-0.160508
-0.158926
-0.157005
-0.154735
-0.152109
-0.149119
-0.145764
-0.142043
-0.137962
-0.133527
-0.128754
-0.123659
-0.118268
-0.112606
-0.106713
-0.100621
-0.094382
-0.0880341
-0.0816386
-0.0752331
-0.0688868
-0.0626272
-0.0565291
-0.0505986
-0.0449161
-0.039454
-0.0343012
-0.0293837
-0.0248065
-0.0204336
-0.0164013
-0.0124899
-0.00888802
-0.0052643
-0.00187957
-0.149779
-0.152218
-0.154164
-0.15571
-0.157047
-0.158266
-0.159358
-0.160276
-0.16098
-0.16145
-0.161676
-0.161648
-0.161354
-0.160779
-0.159907
-0.158724
-0.157219
-0.155379
-0.153195
-0.150659
-0.147765
-0.14451
-0.140895
-0.136923
-0.132602
-0.127946
-0.122971
-0.117701
-0.112161
-0.106387
-0.100413
-0.0942859
-0.0880438
-0.0817455
-0.0754274
-0.0691562
-0.0629594
-0.0569094
-0.0510138
-0.0453505
-0.0398953
-0.034734
-0.0297983
-0.0251884
-0.0207772
-0.0166927
-0.0127283
-0.00905934
-0.00537359
-0.00191188
-0.147643
-0.149961
-0.151893
-0.153488
-0.154881
-0.156141
-0.157265
-0.158216
-0.15896
-0.159476
-0.159752
-0.159776
-0.159537
-0.15902
-0.15821
-0.157094
-0.155659
-0.153893
-0.151787
-0.149334
-0.146527
-0.143364
-0.139844
-0.135973
-0.131756
-0.127206
-0.12234
-0.11718
-0.11175
-0.106086
-0.100218
-0.0941929
-0.0880473
-0.0818375
-0.0755991
-0.0693966
-0.0632575
-0.0572518
-0.0513886
-0.0457433
-0.0402952
-0.0351266
-0.0301751
-0.0255357
-0.02109
-0.0169579
-0.0129456
-0.00921529
-0.00547313
-0.00194114
-0.145759
-0.147962
-0.149876
-0.151512
-0.152955
-0.154254
-0.155407
-0.156387
-0.157165
-0.157721
-0.15804
-0.158111
-0.157921
-0.157456
-0.156702
-0.155644
-0.154271
-0.152571
-0.150536
-0.148156
-0.145426
-0.142345
-0.13891
-0.135127
-0.131002
-0.126547
-0.121777
-0.116714
-0.111382
-0.105814
-0.100041
-0.0941062
-0.088046
-0.0819146
-0.0757471
-0.0696057
-0.063518
-0.057552
-0.0517181
-0.0460893
-0.040648
-0.0354733
-0.0305083
-0.025843
-0.0213671
-0.0171929
-0.0131383
-0.00935336
-0.00556139
-0.00196681
-0.144158
-0.14626
-0.148153
-0.149822
-0.151308
-0.152641
-0.153821
-0.154825
-0.155632
-0.156221
-0.156578