/*--------------------------------*- C++ -*----------------------------------*\
  =========                 |
  \\      /  F ield         | OpenFOAM: The Open Source CFD Toolbox
   \\    /   O peration     | Website:  https://openfoam.org
    \\  /    A nd           | Version:  7
     \\/     M anipulation  |
\*---------------------------------------------------------------------------*/
FoamFile
{
    version     2.0;
    format      ascii;
    class       volVectorField;
    location    "20";
    object      U;
}
// * * * * * * * * * * * * * * * * * * * * * * * * * * * * * * * * * * * * * //

dimensions      [0 1 -1 0 0 0 0];

internalField   nonuniform List<vector> 
6050
(
(-0.167847 0.00389871 1.78993e-20)
(-0.183075 0.0036947 -2.44038e-20)
(-0.196868 0.0035142 1.41966e-20)
(-0.20942 0.00334768 7.38842e-21)
(-0.220858 0.00318381 2.67229e-21)
(-0.23125 0.00300919 -8.63645e-21)
(-0.240613 0.00280995 -4.89976e-21)
(-0.248879 0.00256265 -3.21341e-21)
(-0.255887 0.00223563 1.33232e-20)
(-0.261644 0.00190224 -1.56135e-20)
(-0.265513 0.00128996 -3.31075e-21)
(-0.268332 0.00114138 3.83811e-21)
(-0.267674 0.000265239 -1.0774e-20)
(-0.163853 0.0115914 -7.80279e-20)
(-0.177873 0.0109667 4.74481e-20)
(-0.190257 0.0104095 -3.69012e-20)
(-0.201171 0.00989155 4.41284e-21)
(-0.210714 0.00937923 -2.12363e-20)
(-0.218919 0.0088332 7.691e-21)
(-0.225782 0.00821381 1.53726e-20)
(-0.231224 0.00745774 2.5617e-20)
(-0.23499 0.0064411 1.53742e-20)
(-0.237348 0.0054877 4.27152e-20)
(-0.236955 0.00348532 4.05164e-21)
(-0.236033 0.00317807 -3.47377e-20)
(-0.229176 0.000137953 2.57739e-20)
(-0.155932 0.0189748 6.58707e-21)
(-0.167568 0.0178928 -1.83467e-20)
(-0.177182 0.0169143 3.62925e-20)
(-0.18489 0.0159926 -1.13068e-20)
(-0.190736 0.0150731 1.28204e-20)
(-0.194702 0.014093 -1.29413e-20)
(-0.19674 0.0129912 -2.46331e-20)
(-0.196788 0.0116935 -2.82786e-20)
(-0.194291 0.00987498 -3.44397e-20)
(-0.190394 0.00847589 -6.94886e-20)
(-0.181665 0.00463995 2.57841e-20)
(-0.174391 0.0045767 2.16451e-20)
(-0.155745 -0.00144987 6.73487e-20)
(-0.144203 0.0258539 -5.6868e-21)
(-0.152332 0.0242595 -1.77766e-21)
(-0.157893 0.0227935 -1.05101e-19)
(-0.160937 0.0213911 -4.96208e-20)
(-0.161446 0.019979 2.31298e-20)
(-0.159335 0.0184753 2.85999e-21)
(-0.154492 0.0167985 2.25943e-20)
(-0.147007 0.0149315 -6.73458e-20)
(-0.135497 0.0121351 2.62386e-20)
(-0.123393 0.0105406 3.82371e-20)
(-0.102404 0.00453256 4.41321e-20)
(-0.0875611 0.00489707 -2.35326e-20)
(-0.0521142 -0.00406159 -5.4427e-20)
(-0.128806 0.0320486 -4.35633e-21)
(-0.132361 0.0298766 -1.58553e-21)
(-0.132665 0.0278459 2.14463e-20)
(-0.1297 0.0258764 3.12865e-20)
(-0.123386 0.0238768 -8.43648e-20)
(-0.113578 0.0217553 1.01946e-19)
(-0.100033 0.0194044 5.19977e-20)
(-0.0833404 0.0169271 7.99875e-20)
(-0.0602936 0.0131056 -2.03202e-21)
(-0.0388307 0.01108 -1.89182e-20)
(-0.00198633 0.00405467 1.87188e-21)
(0.0207981 0.00288863 -2.84625e-20)
(0.0773217 -0.00649821 -5.06251e-20)
(-0.107807 0.034583 8.00312e-21)
(-0.101697 0.0319144 2.21069e-20)
(-0.0914416 0.0292997 1.74747e-19)
(-0.0768996 0.0266323 -1.11042e-21)
(-0.0578991 0.0238211 6.10011e-20)
(-0.0339455 0.0207608 -1.48355e-19)
(-0.00659567 0.0174386 1.91634e-20)
(0.0301899 0.0130759 -2.99659e-20)
(0.0619389 0.00981865 -2.38262e-20)
(0.118199 0.00313055 2.25034e-20)
(0.146868 -0.00092606 -4.96113e-20)
(0.231319 -0.00860052 4.99857e-20)
(-0.0786958 0.0382533 -1.16139e-19)
(-0.0649875 0.0348932 1.3585e-20)
(-0.046127 0.0315874 -3.58009e-20)
(-0.0219081 0.028218 5.61606e-20)
(0.00782936 0.0246816 -1.5115e-21)
(0.0438714 0.0210066 -5.14883e-20)
(0.0833866 0.0166045 1.34393e-19)
(0.136334 0.0123853 -5.18173e-20)
(0.177886 0.00709395 -4.37284e-20)
(0.258527 0.00179368 6.76938e-20)
(0.289255 -0.00501739 2.53347e-20)
(0.406784 -0.0106278 1.0909e-19)
(-0.0448369 0.0408051 3.52921e-19)
(-0.0222192 0.0367411 4.50764e-21)
(0.00672532 0.0327566 -2.24474e-19)
(0.0422566 0.0287326 -2.34411e-20)
(0.0844759 0.0245095 -2.16455e-19)
(0.134483 0.0204972 1.01947e-19)
(0.187654 0.0148992 -7.53064e-20)
(0.258838 0.0116751 7.82546e-20)
(0.310495 0.00368567 1.08898e-19)
(0.416726 0.00127016 4.22711e-20)
(0.448668 -0.00831696 -1.17875e-19)
(0.59714 -0.0116694 -1.01435e-19)
(-0.00572732 0.0422146 -2.89721e-19)
(0.0273597 0.0375027 -8.2828e-20)
(0.068153 0.0329445 5.16049e-20)
(0.116927 0.0284353 9.47512e-20)
(0.173617 0.0237052 -2.84123e-20)
(0.239369 0.0198227 1.10162e-19)
(0.308182 0.0131538 6.33367e-21)
(0.397113 0.0116778 -1.17997e-19)
(0.46176 0.00151823 8.23809e-21)
(0.586995 0.00205802 -1.64506e-19)
(0.62385 -0.00897957 3.02772e-20)
(0.790687 -0.00998622 -6.46384e-20)
(0.03954 0.0425421 1.34442e-19)
(0.0850084 0.0373462 -1.10471e-19)
(0.139755 0.0324552 1.71384e-19)
(0.203939 0.0278086 1.67501e-19)
(0.277152 0.0229864 2.14822e-19)
(0.359699 0.0196893 -2.04186e-19)
(0.445998 0.0129154 1.8868e-20)
(0.548657 0.0128085 1.73709e-19)
(0.629634 0.00276732 -6.15644e-20)
(0.760088 0.00497966 9.26857e-22)
(0.806892 -0.0058647 -6.83727e-21)
(0.970636 -0.00455444 8.16132e-20)
(0.0923328 0.0419732 -1.47577e-19)
(0.152474 0.0366156 -2.34455e-20)
(0.223507 0.0318243 -7.43789e-20)
(0.30516 0.0275847 -4.92318e-20)
(0.396288 0.0233984 -1.15806e-19)
(0.495324 0.0209765 -5.77245e-20)
(0.598406 0.0156475 2.19413e-20)
(0.708664 0.0160374 -1.12053e-19)
(0.804014 0.00826987 1.21809e-20)
(0.924643 0.0108145 7.10814e-21)
(0.981312 0.00114475 -8.3004e-20)
(1.11915 0.00387039 5.48018e-20)
(0.231781 0.0358867 -7.68824e-20)
(0.321239 0.0318545 2.39518e-19)
(0.42157 0.0287317 -2.69032e-19)
(0.530108 0.0260666 -2.41168e-19)
(0.643217 0.0248534 3.33478e-19)
(0.757543 0.0219217 -7.20321e-20)
(0.868609 0.0225018 3.49281e-20)
(0.968178 0.0174017 5.02287e-20)
(1.06847 0.0193453 -4.46272e-20)
(1.12671 0.0108236 1.21578e-19)
(1.22407 0.0131908 1.51943e-19)
(0.324725 0.0359889 1.21686e-19)
(0.433727 0.0335645 -1.36566e-19)
(0.551929 0.0323368 -5.79591e-20)
(0.674321 0.0318642 1.88654e-19)
(0.795847 0.0321933 -2.4439e-19)
(0.911674 0.0314727 -1.35663e-20)
(1.01563 0.0321396 9.94945e-20)
(1.10549 0.0285656 -3.96385e-20)
(1.18067 0.0291989 -5.17166e-20)
(1.22889 0.0209095 6.51908e-21)
(1.28493 0.0214637 -6.87666e-20)
(0.432007 0.0379446 -2.54412e-19)
(0.559503 0.0379985 1.49694e-19)
(0.691555 0.0392451 8.55226e-20)
(0.820806 0.0411089 -1.10317e-19)
(0.94161 0.042789 1.73176e-19)
(1.048 0.0433105 1.33677e-19)
(1.13629 0.0433848 -3.43188e-20)
(1.20605 0.039813 1.17975e-21)
(1.25589 0.0385125 -5.28944e-21)
(1.28743 0.0294531 -1.68349e-19)
(1.31219 0.0278983 -2.34863e-19)
(0.552166 0.0427666 1.03209e-19)
(0.693855 0.0458703 -8.58944e-20)
(0.832156 0.0496086 6.05736e-20)
(0.958632 0.053232 5.17614e-20)
(1.06823 0.0553176 -3.92546e-20)
(1.15625 0.0557667 9.36151e-20)
(1.22296 0.0541699 -1.03154e-19)
(1.26942 0.0496047 1.22942e-19)
(1.29763 0.0459637 2.40507e-19)
(1.31365 0.0358912 1.19358e-19)
(1.31992 0.0327753 1.88743e-19)
(0.828832 0.0571656 1.13978e-20)
(0.96337 0.062646 3.35747e-20)
(1.07705 0.0667675 -5.71194e-20)
(1.16714 0.0679575 -1.44151e-19)
(1.23235 0.0671047 -2.63849e-21)
(1.27676 0.0631101 1.74006e-19)
(1.30291 0.0573447 -1.46068e-19)
(1.3159 0.0513474 -3.33981e-19)
(1.32146 0.0408066 -2.49183e-19)
(1.31864 0.0366968 9.38172e-20)
(0.954831 0.070974 -2.49208e-19)
(1.07572 0.0768241 1.88706e-19)
(1.16918 0.0799382 2.44861e-20)
(1.23618 0.0791887 6.4141e-20)
(1.27932 0.076325 -1.40357e-19)
(1.30516 0.0699505 -4.0428e-20)
(1.31684 0.0633046 -3.79219e-20)
(1.32095 0.055205 4.00506e-20)
(1.32042 0.0450268 1.45813e-19)
(1.31375 0.0400045 -3.11236e-19)
(1.16363 0.0904646 -8.87728e-20)
(1.23399 0.091427 2.43438e-20)
(1.27914 0.0883273 -1.38041e-19)
(1.30445 0.0833793 -1.16192e-20)
(1.3171 0.0752006 2.80658e-20)
(1.31988 0.0680489 -2.04947e-20)
(1.31941 0.0581776 2.81363e-19)
(1.31525 0.0491385 5.36596e-21)
(1.30764 0.0427233 2.92344e-19)
(1.22657 0.102401 -3.35918e-20)
(1.27524 0.100756 -1.17814e-19)
(1.30271 0.0954757 -2.1191e-19)
(1.31537 0.0887742 -5.89284e-21)
(1.31959 0.0795141 -9.65746e-20)
(1.31744 0.0719777 8.3272e-20)
(1.31464 0.0608126 -4.22358e-20)
(1.30815 0.053468 -3.25579e-19)
(1.30138 0.0446557 -1.27939e-19)
(1.29881 0.108119 1.76017e-19)
(1.31344 0.101103 2.67631e-19)
(1.31787 0.0931075 -4.49402e-20)
(1.31709 0.0833282 6.47396e-20)
(1.3124 0.0753189 -2.38667e-20)
(1.3083 0.0636422 1.47043e-19)
(1.30026 0.0579058 7.25539e-20)
(1.29538 0.0454449 8.33396e-20)
(1.31033 0.113986 1.74865e-20)
(1.3163 0.105708 7.39117e-20)
(1.31571 0.0968423 -1.39124e-20)
(1.31209 0.0868381 1.30811e-19)
(1.3062 0.0783298 1.40921e-20)
(1.30125 0.066997 -3.41036e-19)
(1.29259 0.0615941 1.53129e-19)
(1.28927 0.0445958 -1.41326e-19)
(1.3146 0.109689 -2.86378e-20)
(1.31108 0.100267 -3.08272e-20)
(1.30592 0.0901438 -2.24695e-20)
(1.29949 0.0813201 1.32334e-19)
(1.29392 0.070555 1.00533e-19)
(1.28558 0.0634834 3.20021e-20)
(1.28187 0.0518785 8.85612e-20)
(1.31038 0.113313 -3.01722e-20)
(1.30521 0.10352 -1.17974e-20)
(1.29921 0.0933474 1.07796e-19)
(1.29254 0.0843875 -5.67207e-20)
(1.28665 0.0735116 -6.61169e-20)
(1.27845 0.067406 -1.51496e-19)
(1.27453 0.0543716 -1.01753e-19)
(1.29872 0.106693 6.07802e-21)
(1.29228 0.0965283 -1.3921e-19)
(1.28552 0.0872686 3.42186e-20)
(1.27936 0.0769651 -6.75868e-20)
(1.27145 0.0698641 -2.56571e-19)
(1.26762 0.0580671 1.33885e-19)
(1.28526 0.0996206 7.52173e-20)
(1.27846 0.0902707 -1.82188e-20)
(1.27214 0.0799187 2.24841e-19)
(1.26457 0.0729016 2.16352e-19)
(1.26045 0.0611992 8.97625e-20)
(1.27138 0.0931101 -4.32501e-21)
(1.26496 0.083028 -1.53413e-19)
(1.25767 0.0754943 -5.88884e-20)
(1.25345 0.0640829 -8.57698e-20)
(1.25781 0.0858951 -1.06748e-20)
(1.25082 0.0780903 1.40983e-19)
(1.24634 0.0669221 1.53474e-19)
(1.24392 0.080544 -8.3225e-20)
(1.23925 0.0695128 -3.17791e-20)
(1.24392 -0.0805441 -2.94661e-20)
(1.23925 -0.0695129 -2.14795e-19)
(1.25781 -0.0858952 6.94117e-20)
(1.25082 -0.0780903 1.53001e-19)
(1.24634 -0.0669221 8.21884e-20)
(1.27138 -0.0931102 8.91018e-20)
(1.26496 -0.083028 -7.43486e-20)
(1.25767 -0.0754943 -1.23862e-19)
(1.25345 -0.064083 2.03246e-20)
(1.28526 -0.0996207 -1.92728e-19)
(1.27846 -0.0902708 -2.85354e-21)
(1.27214 -0.0799188 2.52656e-19)
(1.26457 -0.0729016 1.03535e-19)
(1.26045 -0.0611992 8.78031e-20)
(1.29872 -0.106693 -4.76643e-20)
(1.29228 -0.0965283 2.95383e-20)
(1.28552 -0.0872686 -2.72859e-20)
(1.27936 -0.0769651 2.83918e-20)
(1.27145 -0.0698641 -1.58649e-19)
(1.26762 -0.0580672 9.03763e-20)
(1.31038 -0.113313 3.79777e-21)
(1.30521 -0.10352 8.78747e-20)
(1.29921 -0.0933474 4.14821e-20)
(1.29254 -0.0843875 -1.02894e-19)
(1.28665 -0.0735117 -2.05533e-20)
(1.27845 -0.0674061 -1.01462e-20)
(1.27453 -0.0543716 -1.59232e-19)
(1.3146 -0.109689 -1.13983e-20)
(1.31108 -0.100267 5.94967e-21)
(1.30592 -0.0901439 -5.66089e-20)
(1.29949 -0.0813202 5.22685e-20)
(1.29392 -0.0705551 3.97545e-20)
(1.28558 -0.0634835 -3.59475e-21)
(1.28187 -0.0518786 1.24163e-19)
(1.31033 -0.113986 -1.04961e-19)
(1.3163 -0.105708 -1.63824e-19)
(1.31571 -0.0968424 1.3087e-19)
(1.31209 -0.0868382 8.56448e-20)
(1.3062 -0.0783299 -3.84534e-20)
(1.30125 -0.0669972 -3.17695e-19)
(1.29259 -0.0615942 3.16462e-20)
(1.28927 -0.0445959 1.80661e-20)
(1.29881 -0.108119 2.05724e-19)
(1.31344 -0.101103 2.1716e-19)
(1.31787 -0.0931076 -7.14351e-20)
(1.31709 -0.0833283 1.81972e-20)
(1.3124 -0.075319 5.44236e-20)
(1.3083 -0.0636423 5.06272e-20)
(1.30026 -0.057906 1.53916e-19)
(1.29538 -0.045445 5.88063e-20)
(1.22657 -0.102401 -5.75372e-20)
(1.27524 -0.100756 -9.4315e-20)
(1.30271 -0.0954758 -1.46032e-19)
(1.31537 -0.0887743 3.44701e-20)
(1.31959 -0.0795142 -1.33798e-19)
(1.31744 -0.0719779 -4.70916e-21)
(1.31464 -0.0608127 -1.095e-19)
(1.30815 -0.0534681 -1.51079e-19)
(1.30138 -0.0446558 -9.45372e-20)
(1.16363 -0.0904646 3.96497e-20)
(1.23399 -0.091427 -5.42813e-20)
(1.27914 -0.0883274 -1.19436e-19)
(1.30445 -0.0833794 -7.66915e-20)
(1.3171 -0.0752007 1.14736e-19)
(1.31988 -0.0680491 -7.46044e-20)
(1.31941 -0.0581778 3.34767e-19)
(1.31525 -0.0491387 1.72054e-19)
(1.30764 -0.0427235 2.92239e-20)
(0.95483 -0.0709739 3.62231e-20)
(1.07572 -0.0768241 -1.46385e-20)
(1.16918 -0.0799382 -5.47585e-20)
(1.23618 -0.0791888 2.73098e-19)
(1.27932 -0.0763251 -1.76418e-19)
(1.30516 -0.0699506 -1.64106e-19)
(1.31684 -0.0633048 3.45063e-20)
(1.32095 -0.0552052 3.19808e-20)
(1.32042 -0.045027 3.85865e-19)
(1.31375 -0.0400047 -3.67553e-19)
(0.828831 -0.0571655 1.29334e-19)
(0.96337 -0.062646 1.23024e-20)
(1.07705 -0.0667676 -3.35641e-20)
(1.16714 -0.0679576 -1.04644e-19)
(1.23235 -0.0671048 4.2228e-20)
(1.27676 -0.0631103 8.22656e-20)
(1.30291 -0.0573449 -1.25786e-19)
(1.3159 -0.0513476 -2.96789e-19)
(1.32146 -0.0408068 -1.66495e-19)
(1.31864 -0.036697 8.45013e-20)
(0.552165 -0.0427665 4.73684e-19)
(0.693854 -0.0458702 -2.06701e-19)
(0.832156 -0.0496086 1.03868e-20)
(0.958631 -0.053232 1.49195e-19)
(1.06823 -0.0553177 1.1942e-19)
(1.15625 -0.0557668 -7.33949e-20)
(1.22296 -0.0541701 3.58209e-20)
(1.26942 -0.0496049 1.06717e-19)
(1.29763 -0.045964 7.80939e-20)
(1.31365 -0.0358914 1.50237e-19)
(1.31992 -0.0327755 3.38744e-19)
(0.432007 -0.0379444 -2.92293e-19)
(0.559503 -0.0379984 1.82224e-19)
(0.691554 -0.039245 1.21211e-19)
(0.820806 -0.0411089 -2.43361e-19)
(0.94161 -0.0427891 3.39843e-19)
(1.048 -0.0433106 -2.27299e-20)
(1.13629 -0.043385 -6.3499e-20)
(1.20605 -0.0398132 -4.26245e-20)
(1.25589 -0.0385127 -1.65218e-20)
(1.28743 -0.0294534 -2.33132e-20)
(1.31219 -0.0278986 -1.24975e-19)
(0.324725 -0.0359888 1.06966e-19)
(0.433727 -0.0335644 -1.30378e-19)
(0.551929 -0.0323368 -6.55972e-20)
(0.67432 -0.0318642 1.97358e-19)
(0.795847 -0.0321933 -3.21538e-19)
(0.911674 -0.0314728 -1.73899e-21)
(1.01563 -0.0321397 1.37886e-19)
(1.10548 -0.0285659 -8.68074e-20)
(1.18067 -0.0291992 7.23258e-20)
(1.22889 -0.0209098 -1.48576e-19)
(1.28493 -0.021464 -1.23842e-19)
(0.231781 -0.0358865 5.18762e-20)
(0.321238 -0.0318543 1.41665e-19)
(0.42157 -0.0287316 -2.17731e-19)
(0.530107 -0.0260666 -2.28488e-19)
(0.643217 -0.0248534 3.00334e-19)
(0.757543 -0.0219218 -6.82121e-20)
(0.868608 -0.022502 1.0918e-19)
(0.968178 -0.017402 9.26877e-20)
(1.06847 -0.0193456 -1.37496e-19)
(1.12671 -0.010824 1.41944e-19)
(1.22407 -0.0131911 1.12973e-19)
(0.0923326 -0.041973 2.09584e-19)
(0.152474 -0.0366154 6.23966e-20)
(0.223506 -0.0318242 -2.81274e-19)
(0.30516 -0.0275846 5.38398e-20)
(0.396288 -0.0233983 -1.64777e-19)
(0.495324 -0.0209766 -1.38325e-20)
(0.598405 -0.0156476 7.12192e-20)
(0.708663 -0.0160376 -1.31629e-19)
(0.804013 -0.00827014 -3.46044e-20)
(0.924642 -0.0108149 -3.4146e-20)
(0.981312 -0.00114517 1.86505e-20)
(1.11915 -0.00387079 -2.49686e-20)
(0.0395399 -0.0425419 1.29528e-19)
(0.0850082 -0.037346 -6.83695e-20)
(0.139755 -0.032455 2.49242e-19)
(0.203939 -0.0278085 -2.9384e-20)
(0.277152 -0.0229863 2.25813e-19)
(0.359699 -0.0196893 -5.58145e-20)
(0.445998 -0.0129155 4.1576e-20)
(0.548656 -0.0128087 -5.49934e-20)
(0.629634 -0.00276761 6.28668e-20)
(0.760087 -0.00498003 4.06168e-20)
(0.806892 0.00586425 2.86669e-20)
(0.970636 0.00455398 -4.17106e-20)
(-0.00572749 -0.0422144 -3.59306e-19)
(0.0273595 -0.0375025 -4.27905e-20)
(0.0681528 -0.0329444 6.033e-20)
(0.116927 -0.0284351 9.10144e-20)
(0.173616 -0.0237051 9.93795e-20)
(0.239369 -0.0198227 1.57386e-20)
(0.308182 -0.0131539 -1.16852e-20)
(0.397112 -0.011678 -1.83181e-19)
(0.46176 -0.00151854 -2.83e-20)
(0.586994 -0.00205842 4.03432e-20)
(0.62385 0.00897906 -7.96995e-20)
(0.790687 0.00998569 -1.40825e-19)
(-0.0448371 -0.0408049 2.45509e-19)
(-0.0222194 -0.0367408 -3.34814e-20)
(0.00672511 -0.0327564 -1.73525e-19)
(0.0422564 -0.0287324 -1.33329e-19)
(0.0844756 -0.0245094 -4.48108e-20)
(0.134482 -0.0204972 -5.01426e-20)
(0.187653 -0.0148993 4.08054e-20)
(0.258838 -0.0116753 5.73142e-20)
(0.310495 -0.00368602 7.95713e-20)
(0.416726 -0.00127061 -3.41996e-21)
(0.448668 0.00831639 1.55427e-20)
(0.59714 0.0116688 -1.08498e-19)
(-0.0786959 -0.0382531 -1.4758e-19)
(-0.0649876 -0.034893 9.54482e-20)
(-0.0461272 -0.0315872 -3.47238e-20)
(-0.0219083 -0.0282178 6.85187e-20)
(0.00782913 -0.0246815 -1.41756e-20)
(0.0438712 -0.0210066 -1.84298e-20)
(0.0833863 -0.0166046 5.9551e-20)
(0.136334 -0.0123856 -5.43179e-20)
(0.177885 -0.00709434 5.27303e-20)
(0.258526 -0.00179417 5.70964e-21)
(0.289254 0.00501675 4.32614e-20)
(0.406784 0.0106271 2.11739e-19)
(-0.107807 -0.0345828 3.02345e-20)
(-0.101697 -0.0319142 5.77765e-20)
(-0.0914417 -0.0292996 1.35331e-19)
(-0.0768998 -0.0266322 -4.09544e-20)
(-0.0578992 -0.023821 4.62562e-20)
(-0.0339457 -0.0207608 -6.31684e-20)
(-0.00659589 -0.0174387 -6.33228e-20)
(0.0301896 -0.0130762 7.20789e-20)
(0.0619387 -0.00981907 -1.3645e-20)
(0.118198 -0.00313109 -8.94012e-20)
(0.146868 0.000925367 6.38429e-20)
(0.231319 0.00859975 -4.867e-20)
(-0.128806 -0.0320484 1.02869e-19)
(-0.132361 -0.0298763 -1.56273e-20)
(-0.132665 -0.0278457 5.52915e-21)
(-0.129701 -0.0258762 -1.8688e-20)
(-0.123386 -0.0238767 -2.11006e-21)
(-0.113578 -0.0217552 8.27232e-20)
(-0.100034 -0.0194044 9.23259e-20)
(-0.0833406 -0.0169273 1.50714e-20)
(-0.0602938 -0.0131059 4.18683e-20)
(-0.0388308 -0.0110805 -8.09776e-20)
(-0.00198649 -0.00405527 1.07141e-19)
(0.020798 -0.00288937 -1.12662e-19)
(0.0773216 0.00649736 -2.99029e-20)
(-0.144203 -0.0258537 1.46979e-20)
(-0.152332 -0.0242593 -2.81884e-20)
(-0.157893 -0.0227932 -4.90442e-20)
(-0.160937 -0.0213909 -7.74673e-20)
(-0.161446 -0.0199788 4.24092e-20)
(-0.159335 -0.0184753 -1.02888e-20)
(-0.154492 -0.0167985 5.46335e-20)
(-0.147007 -0.0149317 -9.20855e-20)
(-0.135497 -0.0121354 4.22862e-20)
(-0.123393 -0.010541 4.74742e-20)
(-0.102404 -0.00453321 -4.76837e-20)
(-0.0875611 -0.00489786 4.21988e-20)
(-0.0521143 0.00406068 -6.87786e-20)
(-0.155932 -0.0189746 -5.75494e-21)
(-0.167568 -0.0178925 -3.31183e-20)
(-0.177182 -0.0169141 1.48827e-20)
(-0.18489 -0.0159924 1.64654e-20)
(-0.190736 -0.0150729 2.6284e-20)
(-0.194702 -0.014093 -3.40161e-20)
(-0.196741 -0.0129913 -1.6593e-20)
(-0.196788 -0.0116937 2.63393e-21)
(-0.194291 -0.00987532 -7.70506e-20)
(-0.190394 -0.0084764 -3.90257e-20)
(-0.181665 -0.00464063 -2.17246e-20)
(-0.174391 -0.00457753 7.18313e-20)
(-0.155745 0.00144891 2.43599e-20)
(-0.163853 -0.0115911 -6.72801e-20)
(-0.177873 -0.0109664 4.64162e-20)
(-0.190257 -0.0104093 -3.76383e-20)
(-0.201171 -0.00989137 2.12472e-20)
(-0.210714 -0.00937911 -2.92961e-20)
(-0.218919 -0.00883317 -4.64076e-21)
(-0.225782 -0.00821389 8.67614e-21)
(-0.231224 -0.00745795 3.20277e-20)
(-0.23499 -0.00644146 1.87956e-20)
(-0.237348 -0.00548823 5.18665e-20)
(-0.236955 -0.00348602 -1.62679e-20)
(-0.236033 -0.00317893 -2.22771e-20)
(-0.229176 -0.000138953 -3.09646e-22)
(-0.167847 -0.00389845 1.90478e-20)
(-0.183075 -0.00369446 -2.07288e-20)
(-0.196868 -0.00351398 7.97361e-21)
(-0.20942 -0.0033475 1.63432e-20)
(-0.220858 -0.00318369 -7.51126e-21)
(-0.23125 -0.00300916 1.62299e-21)
(-0.240613 -0.00281003 -1.06333e-20)
(-0.248879 -0.00256286 -2.28941e-21)
(-0.255887 -0.002236 1.08856e-20)
(-0.261644 -0.00190278 -6.32494e-21)
(-0.265513 -0.00129067 -8.24616e-21)
(-0.268332 -0.00114225 -3.8192e-21)
(-0.267674 -0.000266255 -1.34996e-20)
(-0.268642 0.00113321 -1.03407e-20)
(-0.270157 0.00103741 3.74479e-21)
(-0.2714 0.000883382 -5.59007e-21)
(-0.272451 0.000714718 9.753e-21)
(-0.27326 0.000528731 -4.67989e-21)
(-0.273771 0.000331598 -2.64602e-21)
(-0.273942 9.91335e-05 3.64962e-21)
(-0.273714 -0.000166088 -1.2006e-21)
(-0.273008 -0.000464699 2.80712e-21)
(-0.271732 -0.000799051 7.08688e-22)
(-0.269785 -0.00117181 -5.42717e-21)
(-0.267053 -0.00158534 1.07767e-22)
(-0.263411 -0.00204095 3.54573e-21)
(-0.258725 -0.00253771 2.51803e-21)
(-0.252847 -0.00307765 3.23318e-22)
(-0.245618 -0.00365925 -6.439e-21)
(-0.236875 -0.00427975 4.54407e-22)
(-0.22645 -0.00493452 3.00777e-21)
(-0.214177 -0.00561697 -1.43638e-21)
(-0.199897 -0.00631827 2.38195e-21)
(-0.183466 -0.00702658 -3.10411e-21)
(-0.164765 -0.00772538 -1.33453e-21)
(-0.143677 -0.00841554 2.19207e-21)
(-0.120169 -0.00905234 -1.74076e-21)
(-0.094253 -0.00964605 2.07503e-21)
(-0.0659577 -0.0101728 -2.30316e-22)
(-0.0353574 -0.010643 -6.89921e-22)
(-0.00260661 -0.0109723 2.30426e-22)
(0.0320844 -0.0112124 6.08309e-23)
(0.0684402 -0.0113467 -2.49265e-23)
(0.10618 -0.01137 -1.38625e-22)
(0.144979 -0.0112777 1.50671e-22)
(0.184475 -0.0110841 3.36635e-22)
(0.224355 -0.0107861 -9.73116e-23)
(0.26415 -0.0104147 1.97321e-24)
(0.303761 -0.00995755 4.73699e-24)
(0.34244 -0.00946868 2.11872e-23)
(0.380683 -0.00891057 1.03232e-23)
(0.417012 -0.008372 1.0271e-23)
(0.453224 -0.0077693 -1.91501e-23)
(0.48619 -0.00724363 -1.18322e-23)
(0.520279 -0.00664017 3.54747e-23)
(0.549005 -0.00617947 -2.21036e-23)
(0.581529 -0.00560105 -3.58634e-23)
(0.605095 -0.00524044 1.43178e-23)
(0.637355 -0.0046936 -1.64576e-23)
(0.654553 -0.00445609 -3.12376e-23)
(0.688766 -0.00394753 -2.02657e-23)
(0.697861 -0.00384065 -3.59834e-24)
(0.737513 -0.00340816 2.46873e-26)
(-0.22731 0.00269308 -3.14048e-20)
(-0.228289 0.00248112 -7.12897e-21)
(-0.228785 0.0020308 2.93101e-20)
(-0.229035 0.00155704 -2.2063e-20)
(-0.229019 0.00102712 6.94158e-22)
(-0.228712 0.00041332 1.28107e-20)
(-0.228072 -0.000285542 -1.05974e-20)
(-0.227012 -0.00107148 5.85993e-21)
(-0.225463 -0.00195224 7.84032e-21)
(-0.223341 -0.00293651 -1.09999e-20)
(-0.220553 -0.00403221 2.05885e-20)
(-0.216989 -0.00524601 -1.47463e-20)
(-0.21253 -0.00658333 -1.19548e-20)
(-0.207052 -0.00804097 1.07922e-20)
(-0.200418 -0.00962669 2.35767e-21)
(-0.192481 -0.0113341 -5.00893e-21)
(-0.183087 -0.0131545 -3.84076e-21)
(-0.172081 -0.0150739 1.02706e-21)
(-0.159311 -0.0170724 6.59243e-21)
(-0.144631 -0.0191242 -6.3769e-21)
(-0.127911 -0.0211958 -1.32917e-21)
(-0.109061 -0.0232377 6.6127e-21)
(-0.0879454 -0.0253071 -5.28155e-21)
(-0.0645519 -0.0271512 4.99472e-21)
(-0.0389274 -0.0288737 -2.13454e-21)
(-0.0111167 -0.0303944 -2.13729e-21)
(0.0188514 -0.0316645 3.81747e-21)
(0.0508024 -0.0326415 -1.01873e-21)
(0.0844817 -0.0333264 3.4743e-22)
(0.119652 -0.0336859 -8.32453e-22)
(0.156043 -0.0337182 -4.8221e-23)
(0.193327 -0.0334102 -1.64989e-22)
(0.231169 -0.0328054 3.00255e-22)
(0.269261 -0.0318944 -4.00074e-22)
(0.307176 -0.0307694 -6.45754e-23)
(0.344806 -0.0293949 1.96887e-22)
(0.381475 -0.0279297 -4.26352e-23)
(0.417632 -0.0262661 1.0827e-23)
(0.451927 -0.0246616 1.42089e-23)
(0.486024 -0.0228748 5.84515e-25)
(0.51703 -0.0213147 1.2407e-22)
(0.549025 -0.0195323 -8.42443e-23)
(0.575962 -0.0181667 1.28259e-22)
(0.606425 -0.0164647 -9.05651e-23)
(0.628468 -0.0153973 -5.3457e-23)
(0.658666 -0.0137946 2.99511e-23)
(0.674711 -0.0130902 2.0238e-23)
(0.70677 -0.0116065 5.24116e-24)
(0.715226 -0.0112858 2.40048e-23)
(0.752451 -0.0100302 4.49581e-24)
(-0.149474 0.00260161 -3.99039e-20)
(-0.149394 0.00237034 2.54604e-20)
(-0.148581 0.00165883 4.10737e-21)
(-0.147428 0.00084989 -3.00838e-20)
(-0.14607 -5.55343e-05 1.16853e-20)
(-0.144408 -0.00108038 -6.38907e-21)
(-0.142356 -0.00221815 -1.59867e-21)
(-0.139867 -0.00348633 8.31381e-21)
(-0.136882 -0.00490245 6.42732e-21)
(-0.133326 -0.00648284 5.89898e-21)
(-0.129115 -0.00824216 -2.91394e-20)
(-0.124153 -0.0101947 3.24699e-20)
(-0.118327 -0.0123571 -3.33707e-20)
(-0.111532 -0.0146895 1.01944e-20)
(-0.103653 -0.0172271 1.92047e-20)
(-0.0945562 -0.0199582 -2.06073e-20)
(-0.0841112 -0.0228679 5.15478e-21)
(-0.0721852 -0.0259329 -8.58382e-21)
(-0.0586492 -0.029121 2.11055e-20)
(-0.0433834 -0.0323903 -2.26384e-21)
(-0.0262774 -0.0356908 -2.96767e-21)
(-0.00734391 -0.0389582 2.16539e-21)
(0.0136592 -0.0420915 -5.61661e-21)
(0.0367509 -0.0450354 1.44297e-21)
(0.0617182 -0.0477418 2.4036e-21)
(0.0885871 -0.0501115 -5.77906e-21)
(0.117273 -0.0520366 1.60968e-21)
(0.147606 -0.0535381 -1.53996e-21)
(0.179383 -0.0545452 1.57414e-21)
(0.21234 -0.0550149 -3.41985e-21)
(0.246233 -0.0549578 -1.06594e-21)
(0.28074 -0.0543536 2.64298e-21)
(0.315575 -0.053276 -6.06661e-22)
(0.350434 -0.0517094 4.15712e-22)
(0.384966 -0.0498059 -3.11509e-22)
(0.41905 -0.0475096 9.30244e-24)
(0.45213 -0.0450758 1.47461e-22)
(0.484574 -0.0423364 5.11936e-25)
(0.515249 -0.0396983 -5.92038e-24)
(0.545592 -0.0367851 4.51042e-23)
(0.57312 -0.0342367 -8.4865e-26)
(0.601398 -0.0313521 -1.92351e-22)
(0.625157 -0.0291263 -1.5407e-22)
(0.651956 -0.0263905 1.00272e-22)
(0.671289 -0.0246545 2.08234e-23)
(0.697806 -0.0220985 2.75107e-23)
(0.711798 -0.0209484 2.06189e-23)
(0.739986 -0.0186041 2.46214e-23)
(0.747302 -0.0180692 4.29356e-23)
(0.780142 -0.0161045 8.78832e-25)
(-0.0418615 -0.000224673 -2.12919e-20)
(-0.0407094 -0.000174794 -1.71277e-20)
(-0.0384509 -0.000999651 3.12801e-20)
(-0.0357561 -0.00210249 4.02363e-20)
(-0.0328118 -0.00333374 -6.06411e-20)
(-0.0295511 -0.00469369 -4.77076e-21)
(-0.0259014 -0.00621313 4.16573e-20)
(-0.0218072 -0.00790928 -3.10906e-20)
(-0.017211 -0.00980008 -1.87535e-20)
(-0.0120494 -0.0119061 1.48725e-20)
(-0.00625615 -0.0142471 1.07757e-20)
(0.00023226 -0.0168372 7.32373e-21)
(0.00755881 -0.0196728 -4.92237e-21)
(0.0158094 -0.0227618 -1.93008e-20)
(0.0250276 -0.0261141 3.40436e-20)
(0.0353433 -0.0297168 -3.51652e-20)
(0.0468605 -0.0335497 5.08392e-21)
(0.0596829 -0.0375808 1.54568e-20)
(0.0739095 -0.0417664 -1.28933e-20)
(0.0896276 -0.0460492 2.64284e-20)
(0.106915 -0.050365 -3.73588e-21)
(0.125798 -0.0546379 -1.94565e-21)
(0.146345 -0.0586202 -3.98448e-21)
(0.168585 -0.0624467 -2.64919e-21)
(0.192415 -0.0659148 5.01853e-21)
(0.217759 -0.0689202 1.56388e-21)
(0.244524 -0.0713661 -5.40044e-22)
(0.272538 -0.0731894 1.225e-21)
(0.301622 -0.0743449 -1.41757e-22)
(0.331516 -0.0747782 -6.81505e-22)
(0.362014 -0.0745084 -7.69215e-22)
(0.392807 -0.0735097 1.71118e-21)
(0.423669 -0.0718867 -3.7463e-23)
(0.454311 -0.0696192 -1.37515e-21)
(0.484471 -0.0669158 4.39139e-22)
(0.514015 -0.0637035 3.45058e-22)
(0.54253 -0.0603232 -2.15501e-23)
(0.570285 -0.0565574 2.07312e-23)
(0.596411 -0.0529387 3.382e-23)
(0.622058 -0.048982 -5.42767e-23)
(0.645244 -0.0455142 -3.7972e-23)
(0.668898 -0.0416365 9.99333e-23)
(0.688707 -0.0386173 1.44387e-22)
(0.710944 -0.0349726 -1.73951e-22)
(0.726912 -0.0326206 -1.016e-22)
(0.748829 -0.0292542 9.58342e-23)
(0.760271 -0.0276871 -8.22139e-23)
(0.783585 -0.0246411 2.12838e-23)
(0.789489 -0.0238916 -7.65402e-23)
(0.816764 -0.0213748 -3.64792e-24)
(0.0902024 -0.00514268 -2.83153e-20)
(0.0925119 -0.00507401 -1.2157e-20)
(0.0953944 -0.00591868 6.89832e-20)
(0.0991787 -0.0071921 -3.37251e-20)
(0.10337 -0.00865591 4.70921e-20)
(0.107886 -0.0102985 -7.79887e-20)
(0.112804 -0.0121486 2.38408e-20)
(0.118194 -0.0142188 2.12822e-21)
(0.124103 -0.0165212 1.92803e-20)
(0.13058 -0.0190759 -4.04658e-21)
(0.137679 -0.0219052 -2.62019e-20)
(0.145456 -0.0250219 8.28704e-21)
(0.153984 -0.0284062 4.53785e-20)
(0.163339 -0.0321117 -4.13723e-20)
(0.17358 -0.0361184 2.36552e-20)
(0.184784 -0.0404139 -1.02906e-20)
(0.197022 -0.0449737 1.48528e-20)
(0.210365 -0.0497586 1.24677e-20)
(0.224879 -0.0547146 -4.6456e-20)
(0.240614 -0.0597702 1.84213e-20)
(0.257617 -0.0648427 -1.90454e-20)
(0.275893 -0.0698302 2.67345e-20)
(0.295462 -0.074575 -2.77514e-20)
(0.316317 -0.0790091 1.26486e-20)
(0.338379 -0.0829962 4.4702e-21)
(0.36154 -0.086407 -2.34677e-21)
(0.385703 -0.0891364 -1.49961e-21)
(0.410692 -0.0910938 2.43227e-22)
(0.436363 -0.0922334 5.71017e-21)
(0.462469 -0.0924913 -1.02577e-21)
(0.488853 -0.0918983 -2.60963e-21)
(0.515234 -0.0904247 1.41531e-21)
(0.541454 -0.0882051 -4.81543e-22)
(0.56725 -0.0852172 4.62999e-22)
(0.592456 -0.0817184 -5.19885e-22)
(0.616928 -0.0776246 -1.78911e-22)
(0.640403 -0.0733469 -5.62903e-23)
(0.663047 -0.0686313 1.23111e-22)
(0.684258 -0.0641099 3.80073e-23)
(0.704888 -0.0592163 8.16255e-23)
(0.723462 -0.0549171 -1.59612e-22)
(0.742243 -0.0501747 6.56728e-23)
(0.757908 -0.0464449 -1.65763e-23)
(0.775372 -0.0420336 1.92134e-22)
(0.787839 -0.0391261 4.79024e-23)
(0.804944 -0.0351057 -1.09156e-22)
(0.813749 -0.0331537 1.13338e-23)
(0.831933 -0.0295768 -2.79095e-23)
(0.836388 -0.0286145 4.64923e-23)
(0.85776 -0.0257111 1.04339e-23)
(0.243532 -0.00976551 -1.94547e-20)
(0.246732 -0.010627 4.93507e-20)
(0.249438 -0.0118621 -1.277e-19)
(0.253214 -0.0134093 6.72359e-20)
(0.257726 -0.0151675 -5.70298e-20)
(0.262687 -0.0171277 3.76722e-20)
(0.268101 -0.0193127 1.34707e-20)
(0.274031 -0.0217358 -2.03344e-21)
(0.280518 -0.0244094 -3.95496e-21)
(0.287587 -0.027354 -7.31869e-21)
(0.295276 -0.0305926 -7.5362e-21)
(0.303623 -0.0341421 2.25306e-20)
(0.312671 -0.0380052 4.66925e-22)
(0.322468 -0.0421933 -1.52894e-20)
(0.333054 -0.0467027 2.8126e-21)
(0.344467 -0.05152 2.34414e-20)
(0.356748 -0.0566175 -2.42803e-20)
(0.369931 -0.0619509 -5.71765e-21)
(0.384046 -0.067459 1.45349e-20)
(0.39911 -0.0730586 -9.58247e-21)
(0.415132 -0.0786528 2.97901e-21)
(0.432095 -0.0841243 2.10086e-20)
(0.449981 -0.0893233 -7.77793e-21)
(0.468744 -0.0941325 -9.49067e-21)
(0.488314 -0.0984132 -7.01598e-21)
(0.508569 -0.102018 -3.8786e-21)
(0.529414 -0.104836 4.0915e-21)
(0.550679 -0.106757 2.90984e-21)
(0.572254 -0.107739 2.96259e-21)
(0.593926 -0.107713 -2.75975e-21)
(0.615592 -0.106721 1.30491e-21)
(0.637013 -0.104733 2.83325e-22)
(0.658107 -0.101908 -1.84001e-21)
(0.67865 -0.0982258 1.17575e-21)
(0.69857 -0.0939806 6.38807e-22)
(0.717728 -0.089084 -3.80547e-22)
(0.735999 -0.0839985 3.65471e-22)
(0.753459 -0.0784474 -2.70941e-22)
(0.769744 -0.073133 -3.78289e-23)
(0.785433 -0.0674366 -3.17986e-23)
(0.79951 -0.0624158 1.22612e-22)
(0.81361 -0.0569525 -2.47998e-22)
(0.825328 -0.0526085 3.18088e-22)
(0.838287 -0.0475797 -1.3086e-22)
(0.847478 -0.0441861 1.30284e-22)
(0.860079 -0.0396635 -1.01446e-22)
(0.866455 -0.0373632 -1.82106e-23)
(0.879835 -0.0334137 -1.00541e-22)
(0.882981 -0.0322464 -1.70459e-24)
(0.898795 -0.0291026 1.86771e-24)
(0.41539 -0.0132158 1.44208e-19)
(0.418431 -0.0152392 -3.18782e-20)
(0.42059 -0.0172604 5.58384e-21)
(0.42346 -0.0193172 -1.52909e-20)
(0.42717 -0.0215124 -2.08153e-20)
(0.431487 -0.0239065 6.24299e-20)
(0.43635 -0.0265159 -1.03871e-19)
(0.44179 -0.0293454 -2.89684e-22)
(0.447827 -0.0324125 1.22938e-19)
(0.454471 -0.0357459 3.91991e-20)
(0.461742 -0.0393717 -1.56758e-19)
(0.46966 -0.0433064 8.41061e-20)
(0.478243 -0.0475564 -3.08955e-20)
(0.48751 -0.0521284 -4.80798e-20)
(0.497473 -0.0570202 5.84866e-20)
(0.508142 -0.0622164 -1.33109e-21)
(0.519526 -0.0676866 -1.55669e-20)