-0.37194 	0.37194 	1.17961e-17 	0.121808 	0.117185 	7.58785e-20
-0.409303 	0.409303 	7.63278e-18 	0.302295 	0.275029 	-2.10416e-20
-0.448053 	0.448053 	1.35308e-17 	0.447367 	0.379893 	6.77443e-20
-0.488244 	0.488244 	2.56739e-17 	0.560715 	0.445022 	5.49e-20
-0.529927 	0.529927 	3.33067e-17 	0.650754 	0.479087 	1.43691e-20
-0.573159 	0.573159 	3.88578e-17 	0.721103 	0.490337 	9.04063e-21
-0.617998 	0.617998 	3.19189e-17 	0.776385 	0.484921 	-1.85318e-19
-0.664503 	0.664503 	-7.63278e-18 	0.819646 	0.46824 	-4.9923e-20
