-0.37194 	0.37194 	1.17961e-17 	0.24065
-0.409303 	0.409303 	7.63278e-18 	0.197648
-0.448053 	0.448053 	1.35308e-17 	0.198311
-0.488244 	0.488244 	2.56739e-17 	0.192946
-0.529927 	0.529927 	3.33067e-17 	0.201245
-0.573159 	0.573159 	3.88578e-17 	0.208102
-0.617998 	0.617998 	3.19189e-17 	0.216909
-0.664503 	0.664503 	-7.63278e-18 	0.223737
