0 	0.525939 	1.249e-17 	0.125175 	0.00261102 	5.11935e-21
0 	0.57878 	1.249e-17 	0.331699 	0.0231727 	-1.16105e-21
0 	0.633585 	1.249e-17 	0.510671 	0.0583099 	-2.47304e-21
0 	0.690426 	1.11022e-17 	0.664909 	0.0949837 	-1.56701e-22
0 	0.749378 	9.71445e-18 	0.797007 	0.132161 	-4.17519e-21
0 	0.810522 	9.71445e-18 	0.908438 	0.165214 	-4.82876e-21
0 	0.873937 	9.71445e-18 	1.00079 	0.19332 	3.42248e-21
0 	0.939708 	1.11022e-17 	1.0756 	0.215177 	3.19359e-21
