0 	0.525939 	1.249e-17 	-0.603396
0 	0.57878 	1.249e-17 	-0.528734
0 	0.633585 	1.249e-17 	-0.50748
0 	0.690426 	1.11022e-17 	-0.463634
0 	0.749378 	9.71445e-18 	-0.432149
0 	0.810522 	9.71445e-18 	-0.395191
0 	0.873937 	9.71445e-18 	-0.361061
0 	0.939708 	1.11022e-17 	-0.326519
