/*--------------------------------*- C++ -*----------------------------------*\
  =========                 |
  \\      /  F ield         | OpenFOAM: The Open Source CFD Toolbox
   \\    /   O peration     | Website:  https://openfoam.org
    \\  /    A nd           | Version:  7
     \\/     M anipulation  |
\*---------------------------------------------------------------------------*/
FoamFile
{
    version     2.0;
    format      ascii;
    class       volScalarField;
    location    "15";
    object      p;
}
// * * * * * * * * * * * * * * * * * * * * * * * * * * * * * * * * * * * * * //

dimensions      [0 2 -2 0 0 0 0];

internalField   nonuniform List<scalar> 
24200
(
-0.316534
-0.316969
-0.317371
-0.317742
-0.318082
-0.318394
-0.318681
-0.318944
-0.319184
-0.319402
-0.319598
-0.319771
-0.319917
-0.320032
-0.320108
-0.320138
-0.320109
-0.320007
-0.319818
-0.319523
-0.319106
-0.318556
-0.317869
-0.317035
-0.316051
-0.31505
-0.316572
-0.317007
-0.317408
-0.317778
-0.318118
-0.31843
-0.318717
-0.318979
-0.31922
-0.319438
-0.319635
-0.319809
-0.319957
-0.320075
-0.320155
-0.320189
-0.320165
-0.32007
-0.319886
-0.319597
-0.319186
-0.318638
-0.31795
-0.317113
-0.316106
-0.315081
-0.316648
-0.317081
-0.317481
-0.31785
-0.318189
-0.3185
-0.318786
-0.319048
-0.319289
-0.319509
-0.319707
-0.319884
-0.320036
-0.320158
-0.320245
-0.320288
-0.320273
-0.320189
-0.320017
-0.31974
-0.319338
-0.318794
-0.318105
-0.317262
-0.316215
-0.315128
-0.316759
-0.31719
-0.317588
-0.317955
-0.318292
-0.318601
-0.318886
-0.319148
-0.319389
-0.319609
-0.31981
-0.319989
-0.320146
-0.320275
-0.320371
-0.320424
-0.320423
-0.320354
-0.320199
-0.319938
-0.319549
-0.319012
-0.31832
-0.31747
-0.31638
-0.315164
-0.316903
-0.31733
-0.317725
-0.318089
-0.318423
-0.31873
-0.319013
-0.319273
-0.319513
-0.319734
-0.319936
-0.320119
-0.32028
-0.320417
-0.320522
-0.320588
-0.320602
-0.32055
-0.320413
-0.320172
-0.3198
-0.319273
-0.318575
-0.317717
-0.316603
-0.315154
-0.317498
-0.317889
-0.318248
-0.318578
-0.318882
-0.319161
-0.319419
-0.319656
-0.319876
-0.320079
-0.320263
-0.320429
-0.320572
-0.320686
-0.320763
-0.320793
-0.320758
-0.320641
-0.32042
-0.320066
-0.319552
-0.31885
-0.317975
-0.316889
-0.31506
-0.317689
-0.318073
-0.318427
-0.318751
-0.319049
-0.319324
-0.319577
-0.319811
-0.320028
-0.320229
-0.320414
-0.320581
-0.320728
-0.32085
-0.320937
-0.320979
-0.32096
-0.320861
-0.320657
-0.320323
-0.319822
-0.319117
-0.318206
-0.317259
-0.314802
-0.317898
-0.318274
-0.31862
-0.318936
-0.319227
-0.319494
-0.31974
-0.319969
-0.32018
-0.320377
-0.320559
-0.320726
-0.320874
-0.320999
-0.321093
-0.321143
-0.321135
-0.32105
-0.320861
-0.320541
-0.320054
-0.319353
-0.318378
-0.317734
-0.314263
-0.318119
-0.318485
-0.31882
-0.319127
-0.319408
-0.319665
-0.319902
-0.320121
-0.320325
-0.320515
-0.320691
-0.320853
-0.320999
-0.321122
-0.321216
-0.32127
-0.321268
-0.321189
-0.321009
-0.320698
-0.320215
-0.319534
-0.318505
-0.317809
-0.314413
-0.318345
-0.318699
-0.319022
-0.319316
-0.319584
-0.31983
-0.320054
-0.320262
-0.320454
-0.320633
-0.320799
-0.320952
-0.32109
-0.321207
-0.321296
-0.321346
-0.321341
-0.321262
-0.321081
-0.320771
-0.320283
-0.319618
-0.318549
-0.317859
-0.314277
-0.318572
-0.318911
-0.319218
-0.319497
-0.31975
-0.31998
-0.32019
-0.320382
-0.320559
-0.320724
-0.320876
-0.321015
-0.32114
-0.321245
-0.321322
-0.321361
-0.321345
-0.321256
-0.321062
-0.320747
-0.320234
-0.319586
-0.318428
-0.317847
-0.313952
-0.318793
-0.319114
-0.319403
-0.319664
-0.319899
-0.320111
-0.320302
-0.320476
-0.320634
-0.32078
-0.320914
-0.321035
-0.321141
-0.321227
-0.321286
-0.321305
-0.321269
-0.321159
-0.320941
-0.320607
-0.320051
-0.319421
-0.318123
-0.317705
-0.313446
-0.319002
-0.319302
-0.319571
-0.319811
-0.320025
-0.320215
-0.320384
-0.320536
-0.320673
-0.320796
-0.320907
-0.321005
-0.321087
-0.321148
-0.32118
-0.321172
-0.321105
-0.320964
-0.320706
-0.320345
-0.319718
-0.319106
-0.317618
-0.317383
-0.312733
-0.319194
-0.31947
-0.319715
-0.319932
-0.320121
-0.320287
-0.320432
-0.320559
-0.32067
-0.320767
-0.320851
-0.320921
-0.320973
-0.321002
-0.321
-0.320955
-0.320847
-0.320664
-0.320349
-0.319948
-0.319222
-0.318621
-0.316899
-0.316835
-0.311802
-0.319363
-0.319613
-0.319832
-0.320021
-0.320185
-0.320323
-0.320441
-0.32054
-0.320622
-0.320689
-0.320741
-0.320777
-0.320794
-0.320785
-0.32074
-0.320648
-0.320486
-0.320247
-0.319858
-0.319402
-0.318548
-0.317942
-0.315958
-0.316014
-0.310644
-0.319725
-0.319915
-0.320076
-0.32021
-0.320319
-0.320406
-0.320474
-0.320524
-0.320557
-0.320573
-0.32057
-0.320544
-0.320488
-0.320391
-0.320241
-0.320012
-0.319701
-0.319217
-0.318687
-0.317679
-0.317036
-0.314783
-0.314874
-0.309251
-0.319804
-0.319962
-0.320092
-0.320194
-0.320271
-0.320325
-0.320358
-0.320372
-0.320367
-0.320341
-0.320293
-0.320217
-0.320105
-0.319944
-0.319723
-0.319408
-0.319008
-0.318406
-0.317775
-0.316593
-0.315866
-0.313358
-0.313369
-0.307607
-0.319845
-0.31997
-0.320066
-0.320134
-0.320176
-0.320194
-0.32019
-0.320163
-0.320114
-0.320041
-0.31994
-0.319804
-0.319624
-0.319386
-0.319075
-0.318657
-0.318143
-0.317402
-0.316636
-0.315265
-0.314391
-0.311662
-0.311464
-0.305684
-0.319847
-0.319935
-0.319995
-0.320026
-0.320031
-0.32001
-0.319964
-0.319892
-0.319793
-0.319665
-0.319501
-0.319293
-0.319031
-0.318697
-0.318278
-0.317734
-0.31708
-0.316175
-0.315236
-0.313666
-0.312578
-0.309669
-0.30914
-0.303451
-0.319806
-0.319856
-0.319877
-0.31987
-0.319834
-0.319769
-0.319676
-0.319553
-0.319397
-0.319203
-0.318964
-0.31867
-0.318308
-0.317859
-0.317307
-0.316612
-0.315788
-0.314695
-0.313545
-0.311768
-0.310405
-0.307356
-0.3064
-0.300873
-0.319721
-0.319731
-0.319711
-0.319661
-0.31958
-0.319468
-0.319322
-0.319139
-0.318915
-0.318643
-0.318314
-0.317915
-0.317433
-0.316845
-0.316135
-0.315263
-0.314239
-0.312933
-0.311537
-0.309549
-0.307869
-0.304707
-0.303272
-0.297948
-0.319559
-0.319495
-0.319398
-0.319268
-0.319101
-0.318893
-0.31864
-0.318336
-0.31797
-0.317533
-0.317009
-0.316382
-0.31563
-0.314735
-0.313658
-0.312406
-0.310869
-0.309203
-0.306998
-0.304983
-0.301725
-0.299806
-0.2947
-0.319338
-0.319226
-0.319078
-0.318892
-0.318661
-0.318382
-0.318046
-0.317646
-0.317168
-0.316601
-0.315928
-0.315131
-0.314188
-0.313081
-0.311775
-0.310275
-0.30849
-0.306543
-0.30412
-0.30178
-0.298435
-0.296065
-0.291167
-0.319067
-0.318902
-0.318697
-0.318446
-0.318143
-0.317778
-0.317344
-0.316828
-0.316217
-0.315496
-0.314649
-0.313656
-0.312497
-0.311156
-0.309602
-0.307839
-0.305799
-0.303575
-0.300939
-0.298302
-0.294876
-0.292116
-0.2874
-0.318746
-0.318522
-0.318251
-0.317925
-0.317535
-0.317069
-0.316517
-0.315864
-0.315096
-0.314197
-0.313149
-0.311937
-0.31054
-0.308948
-0.307134
-0.305107
-0.302815
-0.30033
-0.297495
-0.294603
-0.291106
-0.28803
-0.283463
-0.31808
-0.317733
-0.317319
-0.316826
-0.31624
-0.315549
-0.314736
-0.313786
-0.312683
-0.311413
-0.30996
-0.308311
-0.306458
-0.304384
-0.302099
-0.299567
-0.296849
-0.293836
-0.290739
-0.287184
-0.283875
-0.279422
-0.317573
-0.317137
-0.316619
-0.316004
-0.315277
-0.314422
-0.313424
-0.312268
-0.31094
-0.309427
-0.307722
-0.305813
-0.3037
-0.301373
-0.298847
-0.296099
-0.293181
-0.290016
-0.286763
-0.28316
-0.2797
-0.275411
-0.316995
-0.316454
-0.315812
-0.315054
-0.314162
-0.31312
-0.311913
-0.310529
-0.308957
-0.307191
-0.305226
-0.303059
-0.300696
-0.298134
-0.295393
-0.292456
-0.289374
-0.286086
-0.282722
-0.279085
-0.275524
-0.271287
-0.315672
-0.314887
-0.313962
-0.31288
-0.311627
-0.31019
-0.308561
-0.306734
-0.304708
-0.302487
-0.300073
-0.297479
-0.294706
-0.291779
-0.288685
-0.285474
-0.282093
-0.278654
-0.274994
-0.271374
-0.267182
-0.314782
-0.313828
-0.312712
-0.311418
-0.309933
-0.308248
-0.306363
-0.304276
-0.301995
-0.299529
-0.296887
-0.294085
-0.29113
-0.288048
-0.284828
-0.281521
-0.278072
-0.274589
-0.270917
-0.267272
-0.263123
-0.31377
-0.312625
-0.311294
-0.309765
-0.30803
-0.306088
-0.303942
-0.3016
-0.299075
-0.296381
-0.293534
-0.290552
-0.287445
-0.284239
-0.280923
-0.277546
-0.274051
-0.270548
-0.266873
-0.263233
-0.259116
-0.311263
-0.309696
-0.307916
-0.305921
-0.303716
-0.301312
-0.298726
-0.295974
-0.293077
-0.290051
-0.286918
-0.283688
-0.280384
-0.276997
-0.273573
-0.27005
-0.266544
-0.262875
-0.259263
-0.255177
-0.309736
-0.307914
-0.30587
-0.303609
-0.301145
-0.298495
-0.295681
-0.292725
-0.289648
-0.286472
-0.283214
-0.279887
-0.276508
-0.273071
-0.269615
-0.266081
-0.262585
-0.258929
-0.255364
-0.251312
-0.308036
-0.305947
-0.303633
-0.301108
-0.298393
-0.295513
-0.292492
-0.289356
-0.286128
-0.282826
-0.279468
-0.276065
-0.27263
-0.269159
-0.265684
-0.26215
-0.258671
-0.255037
-0.251537
-0.247521
-0.303798
-0.301215
-0.298435
-0.295485
-0.292394
-0.28919
-0.285899
-0.282542
-0.279138
-0.2757
-0.272239
-0.268762
-0.26527
-0.261784
-0.25826
-0.254802
-0.251199
-0.247777
-0.243799
-0.301477
-0.298631
-0.295609
-0.292443
-0.289163
-0.2858
-0.282377
-0.278914
-0.275427
-0.271927
-0.268421
-0.264914
-0.261408
-0.257914
-0.254408
-0.250971
-0.247413
-0.244082
-0.240148
-0.2959
-0.292653
-0.289291
-0.285846
-0.282345
-0.278812
-0.275262
-0.271708
-0.268159
-0.264619
-0.261089
-0.257574
-0.254075
-0.250588
-0.247164
-0.243669
-0.240436
-0.236571
-0.293042
-0.28959
-0.286053
-0.282463
-0.278846
-0.27522
-0.271599
-0.267992
-0.264403
-0.260836
-0.25729
-0.253769
-0.250266
-0.246794
-0.243368
-0.239938
-0.23678
-0.233055
-0.286439
-0.282749
-0.279035
-0.275318
-0.271615
-0.267934
-0.264284
-0.260663
-0.257077
-0.253517
-0.249993
-0.246487
-0.243025
-0.23958
-0.23619
-0.232996
-0.229515
-0.28322
-0.279396
-0.275574
-0.271773
-0.268005
-0.264276
-0.260589
-0.256944
-0.25334
-0.249773
-0.246244
-0.242739
-0.239281
-0.235819
-0.232433
-0.229037
-0.225691
-0.276008
-0.272094
-0.268221
-0.264397
-0.260627
-0.25691
-0.253244
-0.249628
-0.246054
-0.242524
-0.239021
-0.235565
-0.232099
-0.228709
-0.225157
-0.221574
-0.272597
-0.268602
-0.264666
-0.260795
-0.256989
-0.253246
-0.249564
-0.245938
-0.24236
-0.238832
-0.235333
-0.231882
-0.22842
-0.225014
-0.221448
-0.217957
-0.265103
-0.261112
-0.257199
-0.253362
-0.249598
-0.245902
-0.242268
-0.23869
-0.235165
-0.231675
-0.228233
-0.224782
-0.221386
-0.217853
-0.214436
-0.257562
-0.253611
-0.249747
-0.245964
-0.242256
-0.238618
-0.235041
-0.231522
-0.228044
-0.224616
-0.221186
-0.217816
-0.214333
-0.211017
-0.254014
-0.250031
-0.246142
-0.242343
-0.238626
-0.234985
-0.231411
-0.227901
-0.224438
-0.22103
-0.217629
-0.214296
-0.210875
-0.207645
-0.246456
-0.242545
-0.238732
-0.235008
-0.231366
-0.227799
-0.2243
-0.220856
-0.217472
-0.214105
-0.210815
-0.207457
-0.204308
-0.238955
-0.235129
-0.2314
-0.22776
-0.2242
-0.220716
-0.217292
-0.213936
-0.210607
-0.207364
-0.20407
-0.200995
-0.231533
-0.2278
-0.224163
-0.220613
-0.217145
-0.213745
-0.210419
-0.20713
-0.203936
-0.200705
-0.1977
-0.224206
-0.220573
-0.217035
-0.213585
-0.21021
-0.206916
-0.203669
-0.200523
-0.197354
-0.194416
-0.220614
-0.216988
-0.213462
-0.210031
-0.206683
-0.203422
-0.200218
-0.197121
-0.194013
-0.191139
-0.213403
-0.209892
-0.206482
-0.203162
-0.199935
-0.196774
-0.193725
-0.190676
-0.187864
-0.206322
-0.202934
-0.199642
-0.19645
-0.193332
-0.190331
-0.18734
-0.184587
-0.199383
-0.196121
-0.192964
-0.189889
-0.186934
-0.184
-0.181305
-0.189473
-0.186441
-0.183532
-0.180653
-0.178014
-0.182985
-0.180122
-0.177297
-0.174712
-0.1767
-0.173928
-0.171395
-0.170543
-0.168061
-0.170544
-0.168061
-0.1767
-0.173928
-0.171395
-0.182985
-0.180122
-0.177297
-0.174712
-0.189474
-0.186441
-0.183532
-0.180653
-0.178014
-0.199384
-0.196122
-0.192964
-0.189889
-0.186934
-0.184
-0.181305
-0.206323
-0.202934
-0.199643
-0.19645
-0.193332
-0.190331
-0.18734
-0.184587
-0.213404
-0.209893
-0.206482
-0.203162
-0.199935
-0.196774
-0.193725
-0.190676
-0.187864
-0.220614
-0.216988
-0.213463
-0.210032
-0.206684
-0.203423
-0.200219
-0.197121
-0.194013
-0.191139
-0.227941
-0.224206
-0.220574
-0.217035
-0.213585
-0.21021
-0.206916
-0.203669
-0.200523
-0.197354
-0.194417
-0.231533
-0.227801
-0.224164
-0.220614
-0.217145
-0.213745
-0.210419
-0.207131
-0.203936
-0.200705
-0.1977
-0.238955
-0.23513
-0.2314
-0.227761
-0.224201
-0.220716
-0.217293
-0.213936
-0.210607
-0.207365
-0.20407
-0.200996
-0.246456
-0.242546
-0.238732
-0.235008
-0.231367
-0.227799
-0.224301
-0.220856
-0.217472
-0.214105
-0.210816
-0.207457
-0.204308
-0.254015
-0.250031
-0.246142
-0.242343
-0.238626
-0.234985
-0.231412
-0.227902
-0.224439
-0.221031
-0.21763
-0.214297
-0.210875
-0.207645
-0.257562
-0.253612
-0.249747
-0.245965
-0.242257
-0.238619
-0.235041
-0.231523
-0.228044
-0.224617
-0.221187
-0.217817
-0.214334
-0.211017
-0.265103
-0.261113
-0.2572
-0.253363
-0.249599
-0.245902
-0.242269
-0.23869
-0.235165
-0.231675
-0.228233
-0.224782
-0.221386
-0.217853
-0.214436
-0.272597
-0.268602
-0.264666
-0.260795
-0.256989
-0.253247
-0.249564
-0.245938
-0.242361
-0.238832
-0.235334
-0.231882
-0.22842
-0.225014
-0.221448
-0.217957
-0.276009
-0.272094
-0.268221
-0.264398
-0.260627
-0.25691
-0.253245
-0.249628
-0.246054
-0.242525
-0.239022
-0.235566
-0.232099
-0.22871
-0.225158
-0.221574
-0.283221
-0.279396
-0.275575
-0.271774
-0.268005
-0.264276
-0.260589
-0.256944
-0.253341
-0.249773
-0.246245
-0.242739
-0.239281
-0.235819
-0.232434
-0.229038
-0.225691
-0.286439
-0.282749
-0.279035
-0.275318
-0.271615
-0.267935
-0.264284
-0.260664
-0.257077
-0.253518
-0.249993
-0.246487
-0.243025
-0.239581
-0.236191
-0.232997
-0.229516
-0.293042
-0.28959
-0.286054
-0.282464
-0.278846
-0.27522
-0.271599
-0.267992
-0.264403
-0.260837
-0.25729
-0.25377
-0.250267
-0.246795
-0.243368
-0.239939
-0.236781
-0.233056
-0.2959
-0.292654
-0.289292
-0.285846
-0.282346
-0.278812
-0.275262
-0.271709
-0.268159
-0.26462
-0.261089
-0.257575
-0.254076
-0.250589
-0.247165
-0.243669
-0.240437
-0.236571
-0.301477
-0.298631
-0.295609
-0.292443
-0.289164
-0.2858
-0.282377
-0.278915
-0.275428
-0.271928
-0.268422
-0.264915
-0.261409
-0.257915
-0.254408
-0.250972
-0.247414
-0.244083
-0.240149
-0.303798
-0.301215
-0.298435
-0.295485
-0.292394
-0.289191
-0.285899
-0.282543
-0.279139
-0.275701
-0.27224
-0.268763
-0.265271
-0.261784
-0.258261
-0.254803
-0.251199
-0.247778
-0.2438
-0.308036
-0.305947
-0.303633
-0.301109
-0.298394
-0.295514
-0.292493
-0.289357
-0.286129
-0.282827
-0.279469
-0.276066
-0.272631
-0.26916
-0.265685
-0.262151
-0.258672
-0.255037
-0.251537
-0.247521
-0.309736
-0.307915
-0.30587
-0.30361
-0.301145
-0.298495
-0.295681
-0.292725
-0.289649
-0.286473
-0.283215
-0.279888
-0.276509
-0.273072
-0.269616
-0.266082
-0.262585
-0.25893
-0.255365
-0.251313
-0.311264
-0.309697
-0.307916
-0.305921
-0.303716
-0.301313
-0.298727
-0.295975
-0.293078
-0.290052
-0.286919
-0.283689
-0.280385
-0.276998
-0.273574
-0.270051
-0.266545
-0.262876
-0.259264
-0.255178
-0.31377
-0.312625
-0.311294
-0.309766
-0.308031
-0.306089
-0.303943
-0.301601
-0.299076
-0.296382
-0.293535
-0.290553
-0.287447
-0.28424
-0.280924
-0.277548
-0.274052
-0.270549
-0.266874
-0.263234
-0.259116
-0.314782
-0.313829
-0.312713
-0.311418
-0.309933
-0.308249
-0.306363
-0.304277
-0.301996
-0.29953
-0.296888
-0.294086
-0.291131
-0.288049
-0.28483
-0.281523
-0.278073
-0.27459
-0.270918
-0.267273
-0.263123
-0.315672
-0.314887
-0.313962
-0.312881
-0.311627
-0.310191
-0.308561
-0.306735
-0.304709
-0.302488
-0.300074
-0.29748
-0.294707
-0.29178
-0.288686
-0.285476
-0.282094
-0.278655
-0.274995
-0.271375
-0.267182
-0.316995
-0.316454
-0.315812
-0.315054
-0.314162
-0.31312
-0.311914
-0.31053
-0.308958
-0.307192
-0.305227
-0.30306
-0.300698
-0.298136
-0.295394
-0.292457
-0.289375
-0.286087
-0.282723
-0.279087
-0.275525
-0.271288
-0.317573
-0.317137
-0.316619
-0.316004
-0.315277
-0.314423
-0.313425
-0.312269
-0.310941
-0.309429
-0.307723
-0.305814
-0.303701
-0.301375
-0.298849
-0.2961
-0.293183
-0.290017
-0.286764
-0.283162
-0.279701
-0.275412
-0.31808
-0.317734
-0.317319
-0.316826
-0.316241
-0.315549
-0.314736
-0.313787
-0.312684
-0.311414
-0.309962
-0.308313
-0.30646
-0.304386
-0.3021
-0.299569
-0.296851
-0.293837
-0.290741
-0.287185
-0.283877
-0.279424
-0.318745
-0.318522
-0.318251
-0.317925
-0.317535
-0.31707
-0.316517
-0.315865
-0.315097
-0.314198
-0.313151
-0.311938
-0.310542
-0.308949
-0.307136
-0.305109
-0.302816
-0.300332
-0.297497
-0.294605
-0.291108
-0.288032
-0.283465
-0.319067
-0.318902
-0.318698
-0.318447
-0.318143
-0.317779
-0.317344
-0.316828
-0.316218
-0.315497
-0.31465
-0.313657
-0.312498
-0.311157
-0.309603
-0.307841
-0.305801
-0.303577
-0.300941
-0.298303
-0.294878
-0.292118
-0.287402
-0.319338
-0.319226
-0.319078
-0.318892
-0.318662
-0.318383
-0.318047
-0.317646
-0.317169
-0.316602
-0.315929
-0.315133
-0.31419
-0.313083
-0.311777
-0.310277
-0.308492
-0.306545
-0.304122
-0.301781
-0.298437
-0.296067
-0.291168
-0.319559
-0.319495
-0.319399
-0.319268
-0.319101
-0.318894
-0.318641
-0.318337
-0.317971
-0.317534
-0.31701
-0.316384
-0.315632
-0.314737
-0.31366
-0.312408
-0.310871
-0.309205
-0.307
-0.304985
-0.301727
-0.299808
-0.294701
-0.319721
-0.319731
-0.319711
-0.319661
-0.319581
-0.319468
-0.319322
-0.319139
-0.318916
-0.318644
-0.318315
-0.317917
-0.317434
-0.316847
-0.316137
-0.315264
-0.314241
-0.312936
-0.311539
-0.309551
-0.307871
-0.304709
-0.303274
-0.29795
-0.319806
-0.319856
-0.319877
-0.31987
-0.319834
-0.31977
-0.319677
-0.319554
-0.319398
-0.319204
-0.318965
-0.318671
-0.318309
-0.31786
-0.317309
-0.316614
-0.31579
-0.314697
-0.313547
-0.31177
-0.310407
-0.307358
-0.306402
-0.300875
-0.319847
-0.319935
-0.319995
-0.320027
-0.320031
-0.32001
-0.319964
-0.319893
-0.319794
-0.319666
-0.319502
-0.319295
-0.319033
-0.318699
-0.31828
-0.317736
-0.317082
-0.316177
-0.315239
-0.313668
-0.31258
-0.309672
-0.309142
-0.303453
-0.319845
-0.31997
-0.320066
-0.320134
-0.320176
-0.320195
-0.32019
-0.320164
-0.320115
-0.320042
-0.319941
-0.319805
-0.319626
-0.319387
-0.319077
-0.318659
-0.318145
-0.317404
-0.316639
-0.315267
-0.314393
-0.311665
-0.311467
-0.305687
-0.319804
-0.319962
-0.320092
-0.320194
-0.320271
-0.320326
-0.320359
-0.320373
-0.320368
-0.320342
-0.320294
-0.320218
-0.320107
-0.319946
-0.319724
-0.31941
-0.31901
-0.318409
-0.317778
-0.316596
-0.315868
-0.313361
-0.313371
-0.307609
-0.319725
-0.319915
-0.320076
-0.32021
-0.320319
-0.320407
-0.320475
-0.320524
-0.320558
-0.320574
-0.320571
-0.320545
-0.32049
-0.320393
-0.320243
-0.320014
-0.319703
-0.319219
-0.318689
-0.317681
-0.317039
-0.314786
-0.314876
-0.309253
-0.319363
-0.319613
-0.319832
-0.320022
-0.320185
-0.320324
-0.320441
-0.32054
-0.320623
-0.32069
-0.320742
-0.320778
-0.320795
-0.320786
-0.320742
-0.32065
-0.320488
-0.320249
-0.31986
-0.319404
-0.31855
-0.317944
-0.315961
-0.316017
-0.310647
-0.319194
-0.31947
-0.319715
-0.319932
-0.320122
-0.320288
-0.320433
-0.32056
-0.320671
-0.320768
-0.320852
-0.320922
-0.320974
-0.321004
-0.321002
-0.320957
-0.320849
-0.320666
-0.320352
-0.31995
-0.319224
-0.318623
-0.316902
-0.316838
-0.311805
-0.319002
-0.319302
-0.319571
-0.319811
-0.320025
-0.320215
-0.320385
-0.320537
-0.320674
-0.320797
-0.320908
-0.321006
-0.321088
-0.32115
-0.321182
-0.321174
-0.321107
-0.320966
-0.320709
-0.320347
-0.31972
-0.319108
-0.31762
-0.317386
-0.312736
-0.318793
-0.319114
-0.319404
-0.319665
-0.319899
-0.320111
-0.320302
-0.320476
-0.320635
-0.320781
-0.320915
-0.321036
-0.321142
-0.321228
-0.321287
-0.321307
-0.321271
-0.321161
-0.320943
-0.32061
-0.320053
-0.319424
-0.318125
-0.317708
-0.313448
-0.318572
-0.318911
-0.319218
-0.319498
-0.319751
-0.319981
-0.32019
-0.320382
-0.32056
-0.320724
-0.320877
-0.321016
-0.321141
-0.321246
-0.321324
-0.321362
-0.321347
-0.321257
-0.321064
-0.320749
-0.320237
-0.319588
-0.318431
-0.317849
-0.313955
-0.318345
-0.318699
-0.319022
-0.319316
-0.319585
-0.31983
-0.320055
-0.320262
-0.320455
-0.320634
-0.3208
-0.320953
-0.321091
-0.321208
-0.321298
-0.321348
-0.321343
-0.321264
-0.321083
-0.320773
-0.320285
-0.31962
-0.318551
-0.317861
-0.314279
-0.318119
-0.318485
-0.31882
-0.319127
-0.319408
-0.319665
-0.319903
-0.320122
-0.320326
-0.320515
-0.320692
-0.320854
-0.320999
-0.321123
-0.321218
-0.321272
-0.321269
-0.321191
-0.321011
-0.3207
-0.320217
-0.319536
-0.318507
-0.317811
-0.314415
-0.317898
-0.318274
-0.31862
-0.318936
-0.319227
-0.319494
-0.319741
-0.319969
-0.320181
-0.320378
-0.32056
-0.320727
-0.320875
-0.321
-0.321094
-0.321144
-0.321137
-0.321051
-0.320863
-0.320543
-0.320055
-0.319355
-0.318379
-0.317736
-0.314265
-0.317689
-0.318073
-0.318427
-0.318751
-0.319049
-0.319324
-0.319577
-0.319811
-0.320028
-0.320229
-0.320414
-0.320582
-0.320729
-0.32085
-0.320938
-0.32098
-0.320961
-0.320862
-0.320659
-0.320324
-0.319824
-0.319119
-0.318208
-0.317261
-0.314804
-0.317498
-0.317889
-0.318248
-0.318578
-0.318882
-0.319161
-0.319419
-0.319657
-0.319877
-0.320079
-0.320264
-0.32043
-0.320572
-0.320687
-0.320764
-0.320793
-0.320759
-0.320643
-0.320421
-0.320068
-0.319553
-0.318851
-0.317976
-0.316891
-0.315061
-0.316903
-0.31733
-0.317725
-0.318089
-0.318423
-0.31873
-0.319013
-0.319274
-0.319514
-0.319734
-0.319936
-0.320119
-0.320281
-0.320417
-0.320523
-0.320588
-0.320603
-0.320551
-0.320414
-0.320173
-0.319801
-0.319274
-0.318577
-0.317718
-0.316604
-0.315155
-0.316759
-0.31719
-0.317588
-0.317955
-0.318292
-0.318602
-0.318886
-0.319148
-0.319389
-0.319609
-0.31981
-0.31999
-0.320146
-0.320276
-0.320371
-0.320425
-0.320424
-0.320355
-0.320199
-0.319939
-0.31955
-0.319013
-0.318321
-0.317471
-0.316381
-0.315165
-0.316648
-0.317081
-0.317481
-0.31785
-0.318189
-0.3185
-0.318786
-0.319049
-0.319289
-0.319509
-0.319708
-0.319884
-0.320036
-0.320159
-0.320246
-0.320288
-0.320274
-0.320189
-0.320018
-0.319741
-0.319339
-0.318795
-0.318106
-0.317263
-0.316216
-0.315129
-0.316572
-0.317007
-0.317408
-0.317778
-0.318118
-0.31843
-0.318717
-0.318979
-0.31922
-0.319438
-0.319635
-0.319809
-0.319958
-0.320075
-0.320156
-0.32019
-0.320166
-0.32007
-0.319887
-0.319598
-0.319186
-0.318638
-0.31795
-0.317114
-0.316106
-0.315081
-0.316534
-0.316969
-0.317371
-0.317742
-0.318082
-0.318394
-0.318681
-0.318944
-0.319184
-0.319402
-0.319598
-0.319771
-0.319917
-0.320032
-0.320108
-0.320138
-0.320109
-0.320007
-0.319818
-0.319523
-0.319106
-0.318556
-0.317869
-0.317035
-0.316051
-0.31505
-0.314058
-0.312291
-0.310158
-0.307346
-0.303831
-0.299489
-0.294229
-0.287948
-0.280563
-0.272009
-0.262246
-0.251262
-0.23908
-0.225759
-0.211397
-0.19613
-0.180136
-0.163617
-0.146805
-0.129947
-0.113296
-0.0971016
-0.0815937
-0.0669593
-0.0533739
-0.0409681
-0.0298262
-0.0199904
-0.0114628
-0.00421046
0.00182888
0.00674002
0.0106234
0.0135887
0.0157491
0.0172167
0.0180989
0.0184958
0.0184985
0.0181881
0.017636
0.0169036
0.0160429
0.0150974
0.0141026
0.0130873
0.0120744
0.0110816
0.0101223
0.00920628
0.00834045
0.00752919
0.00677491
0.0060785
0.00543958
0.00485686
0.00432832
0.00385144
0.00342331
0.00304083
0.00270071
0.00239964
0.0021343
0.00190144
0.00169788
0.00152057
0.00136659
0.00123316
0.0011176
0.00101741
0.00093033
0.000854424
0.00078804
0.000729634
0.000677505
0.000629626
0.00058372
0.000537649
0.000489904
0.000440042
0.00038872
0.00033746
0.000288094
0.00024237
0.000201347
0.000165533
0.000134938
0.000109374
8.81198e-05
7.07862e-05
5.64445e-05
4.50006e-05
3.53536e-05
2.79662e-05
2.12851e-05
1.671e-05
1.16229e-05
9.15046e-06
4.37636e-06
3.7854e-06
-0.314268
-0.312489
-0.31039
-0.307606
-0.304121
-0.299811
-0.294582
-0.28833
-0.280973
-0.272445
-0.262704
-0.251739
-0.239572
-0.226263
-0.211907
-0.196642
-0.180645
-0.164119
-0.147294
-0.130421
-0.113751
-0.097542
-0.0820036
-0.0673481
-0.0537393
-0.0413098
-0.0301445
-0.0202859
-0.0117364
-0.00446323
0.00159593
0.00652581
0.0104269
0.0134088
0.0155848
0.017067
0.0179629
0.0183724
0.0183868
0.0180872
0.017545
0.0168217
0.0159693
0.0150313
0.0140433
0.0130342
0.0120268
0.0110389
0.010084
0.00917204
0.00830978
0.00750169
0.00675025
0.00605637
0.00541971
0.004839
0.00431225
0.00383697
0.00341027
0.00302905
0.00269007
0.00239002
0.00212559
0.00189355
0.00169072
0.00151406
0.00136068
0.00122779
0.00111272
0.00101297
0.000926292
0.000850741
0.000784674
0.000726561
0.000674714
0.00062712
0.000581505
0.000535732
0.000488284
0.000438705
0.000387641
0.000336608
0.00028743
0.000241861
0.000200958
0.000165239
0.000134713
0.000109204
8.79896e-05
7.06866e-05
5.63678e-05
4.49413e-05
3.53081e-05
2.79307e-05
2.12587e-05
1.66892e-05
1.16087e-05
9.13871e-06
4.37112e-06
3.77897e-06
-0.314669
-0.312862
-0.310829
-0.308096
-0.304663
-0.300423
-0.295254
-0.289058
-0.281755
-0.273276
-0.263579
-0.252653
-0.240517
-0.22723
-0.212889
-0.197628
-0.181628
-0.16509
-0.148245
-0.131347
-0.114646
-0.0983859
-0.0828146
-0.068114
-0.0544605
-0.041986
-0.0307762
-0.020874
-0.0122823
-0.00496861
0.0011293
0.00609606
0.0100321
0.0130471
0.0152542
0.0167657
0.0176889
0.0181239
0.0181619
0.0178842
0.017362
0.016657
0.0158213
0.0148985
0.0139242
0.0129274
0.0119312
0.0109534
0.0100075
0.00910348
0.00824838
0.00744669
0.00670096
0.00601216
0.00538003
0.00480335
0.0042802
0.00380812
0.00338428
0.00300561
0.0026689
0.00237088
0.00210828
0.00187785
0.00167649
0.00150115
0.00134895
0.00121713
0.00110303
0.00100417
0.000918283
0.000843438
0.000778003
0.000720473
0.000669186
0.000622154
0.000577117
0.000531933
0.000485069
0.000436049
0.000385496
0.00033491
0.000286108
0.000240845
0.000200184
0.000164651
0.000134266
0.000108863
8.77299e-05
7.04873e-05
5.62147e-05
4.48228e-05
3.52171e-05
2.786e-05
2.12056e-05
1.66475e-05
1.15804e-05
9.11517e-06
4.3608e-06
3.76607e-06
-0.315228
-0.313365
-0.311427
-0.308771
-0.305439
-0.301269
-0.29618
-0.290064
-0.282838
-0.274431
-0.264797
-0.253928
-0.241839
-0.228589
-0.214273
-0.199023
-0.183023
-0.166477
-0.149609
-0.132675
-0.115918
-0.0996231
-0.0839924
-0.0692336
-0.0555202
-0.0429842
-0.0317126
-0.0217494
-0.0130979
-0.00572611
0.00042791
0.00544859
0.00943618
0.0125002
0.0147539
0.0163093
0.0172738
0.0177474
0.0178212
0.0175766
0.0170849
0.0164078
0.0155976
0.0146978
0.0137444
0.0127665
0.0117872
0.0108245
0.00989225
0.00900043
0.00815619
0.00736419
0.00662708
0.00594596
0.00532067
0.00475008
0.00423235
0.00376509
0.00334554
0.0029707
0.0026374
0.00234243
0.00208254
0.00185456
0.00165537
0.00148199
0.00133156
0.00120134
0.00108869
0.000991142
0.000906433
0.000832639
0.000768145
0.000711479
0.000661023
0.00061482
0.000570632
0.000526312
0.000480306
0.000432108
0.000382309
0.000332383
0.000284138
0.000239329
0.000199026
0.000163773
0.000133597
0.000108354
8.7341e-05
7.01889e-05
5.59854e-05
4.46454e-05
3.50808e-05
2.7754e-05
2.11262e-05
1.65852e-05
1.15379e-05
9.07991e-06
4.34532e-06
3.74676e-06
-0.315901
-0.313939
-0.312116
-0.309552
-0.306323
-0.302261
-0.297274
-0.291259
-0.284129
-0.275814
-0.266263
-0.25547
-0.243444
-0.230245
-0.215971
-0.200745
-0.184757
-0.168196
-0.151294
-0.134337
-0.117549
-0.101194
-0.0855017
-0.0706779
-0.0568952
-0.0442871
-0.0329418
-0.0229044
-0.0141791
-0.00673445
-0.000509051
0.00458109
0.00863588
0.0117645
0.0140799
0.0156939
0.0167137
0.0172392
0.0173615
0.0171618
0.0167114
0.0160721
0.0152963
0.0144278
0.0135028
0.0125504
0.0115941
0.010652
0.00973811
0.00886274
0.00803316
0.00725421
0.00652872
0.00585794
0.00524184
0.00467942
0.00416895
0.00370814
0.00329433
0.0029246
0.00259585
0.00230493
0.00204867
0.00182391
0.00162762
0.00145684
0.00130875
0.00118063
0.0010699
0.000974082
0.000890926
0.000818517
0.000755265
0.000699739
0.00065037
0.000605249
0.000562161
0.000518959
0.000474065
0.000426932
0.000378114
0.000329051
0.000281535
0.000237322
0.000197493
0.000162608
0.000132709
0.000107677
8.68241e-05
6.97921e-05
5.56803e-05
4.44092e-05
3.48994e-05
2.76129e-05
2.10203e-05
1.65023e-05
1.14814e-05
9.03296e-06
4.32471e-06
3.72107e-06
-0.316657
-0.314517
-0.312834
-0.310378
-0.307261
-0.303314
-0.298443
-0.292543
-0.285525
-0.277321
-0.267872
-0.257172
-0.245229
-0.232103
-0.217875
-0.202669
-0.186706
-0.170162
-0.153265
-0.136279
-0.119455
-0.103051
-0.087301
-0.0724123
-0.0585586
-0.0458742
-0.034449
-0.0243292
-0.01552
-0.00799083
-0.00168115
0.00349232
0.00762877
0.0108368
0.0132287
0.0149159
0.0160052
0.0165962
0.0167798
0.016637
0.0162391
0.0156479
0.014916
0.0140874
0.0131984
0.0122785
0.0113513
0.0104354
0.00954485
0.00869032
0.00787931
0.00711687
0.00640607
0.00574833
0.00514381
0.00459167
0.00409032
0.00363762
0.00323101
0.00286767
0.00254461
0.00225875
0.00200699
0.00178626
0.00159357
0.001426
0.0012808
0.0011553
0.00104692
0.000953231
0.000871988
0.000801288
0.000739568
0.000685444
0.000637407
0.0005936
0.000551841
0.000509986
0.000466431
0.000420585
0.000372954
0.000324942
0.000278317
0.000234836
0.000195589
0.00016116
0.000131604
0.000106835
8.61805e-05
6.92977e-05
5.53e-05
4.41146e-05
3.46731e-05
2.74368e-05
2.08883e-05
1.63988e-05
1.14108e-05
8.9744e-06
4.29898e-06
3.68905e-06
-0.317507
-0.315018
-0.313507
-0.311188
-0.308168
-0.304343
-0.299597
-0.293824
-0.286934
-0.278853
-0.269495
-0.25891
-0.247066
-0.234024
-0.219876
-0.204747
-0.188822
-0.1723
-0.155415
-0.138422
-0.12158
-0.105142
-0.0893456
-0.0744003
-0.0604809
-0.0477228
-0.0362172
-0.0260114
-0.0171122
-0.00949004
-0.00308561
0.0021832
0.00641448
0.0097158
0.0121985
0.0139733
0.0151461
0.0158162
0.0160741
0.0160005
0.0156665
0.015134
0.0144556
0.0136756
0.0128305
0.0119503
0.0110587
0.0101746
0.00931247
0.00848328
0.00769482
0.00695243
0.00625943
0.00561748
0.00502696
0.00448723
0.00399689
0.00355394
0.00315598
0.00280032
0.00248407
0.00220427
0.0019579
0.00174197
0.00155356
0.00138982
0.00124805
0.00112563
0.00102004
0.000928861
0.000849875
0.000781193
0.000721283
0.000668812
0.000622334
0.000580054
0.000539828
0.000499519
0.000457501
0.000413138
0.000366883
0.000320092
0.000274509
0.000231886
0.000193324
0.000159433
0.000130286
0.000105829
8.54116e-05
6.87067e-05
5.48451e-05
4.37622e-05
3.44022e-05
2.7226e-05
2.07302e-05
1.62749e-05
1.13264e-05
8.9043e-06
4.26817e-06
3.65079e-06
-0.318392
-0.315364
-0.314113
-0.311875
-0.308965
-0.30526
-0.300639
-0.294995
-0.288234
-0.280281
-0.271077
-0.26061
-0.248884
-0.235948
-0.221893
-0.206849
-0.190992
-0.174523
-0.157675
-0.140703
-0.123865
-0.107415
-0.0915911
-0.0766046
-0.0626316
-0.049808
-0.0382265
-0.0279359
-0.0189442
-0.0112236
-0.0047164
0.000657885