/*--------------------------------*- C++ -*----------------------------------*\
  =========                 |
  \\      /  F ield         | OpenFOAM: The Open Source CFD Toolbox
   \\    /   O peration     | Website:  https://openfoam.org
    \\  /    A nd           | Version:  7
     \\/     M anipulation  |
\*---------------------------------------------------------------------------*/
FoamFile
{
    version     2.0;
    format      ascii;
    class       surfaceScalarField;
    location    "15";
    object      phi;
}
// * * * * * * * * * * * * * * * * * * * * * * * * * * * * * * * * * * * * * //

dimensions      [0 3 -1 0 0 0 0];

internalField   nonuniform List<scalar> 
48038
(
-0.000346039
3.17401e-05
3.81728e-09
-0.000378823
3.27797e-05
4.12655e-09
-0.000412703
3.38758e-05
4.43793e-09
-0.000447738
3.50304e-05
4.74571e-09
-0.000483987
3.62443e-05
5.0432e-09
-0.000521509
3.75166e-05
5.32278e-09
-0.00056036
3.88452e-05
5.5758e-09
-0.000600592
4.02258e-05
5.79254e-09
-0.00064225
4.16519e-05
5.96234e-09
-0.00068537
4.3114e-05
6.07357e-09
-0.000729975
4.45995e-05
6.11373e-09
-0.000776073
4.6092e-05
6.06963e-09
-0.00082365
4.75708e-05
5.92761e-09
-0.000872666
4.90108e-05
5.67375e-09
-0.000923054
5.03827e-05
5.29422e-09
-0.000974713
5.16538e-05
4.77574e-09
-0.00102751
5.279e-05
4.106e-09
-0.00108127
5.37593e-05
3.27429e-09
-0.00113581
5.45384e-05
2.27207e-09
-0.00119093
5.51218e-05
1.09324e-09
-0.00124647
5.55347e-05
-2.63259e-10
-0.00130232
5.5852e-05
-1.79509e-09
-0.00135854
5.62259e-05
-3.49523e-09
-0.00141537
5.68352e-05
-5.34934e-09
-0.00147318
5.78146e-05
-7.34201e-09
5.99296e-05
-9.45694e-09
-0.0015331
-0.000343169
6.30487e-05
-0.000375456
6.50665e-05
-0.000408769
6.71896e-05
-0.00044316
6.94214e-05
-0.000478679
7.17625e-05
-0.000515373
7.42106e-05
-0.000553288
7.67602e-05
-0.000592464
7.9402e-05
-0.000632934
8.21219e-05
-0.00067472
8.49004e-05
-0.000717832
8.77113e-05
-0.000762261
9.05209e-05
-0.000807977
9.32871e-05
-0.000854926
9.59592e-05
-0.000903021
9.84778e-05
-0.000952143
0.000100776
-0.00100214
0.000102785
-0.00105281
0.000104436
-0.00110395
0.000105678
-0.00115532
0.000106491
-0.0012067
0.000106913
-0.00125793
0.000107075
-0.00130896
0.000107264
-0.00135999
0.000107864
-0.00141132
0.000109139
0.000112436
-0.00146382
-0.00033746
9.34919e-05
-0.000368759
9.63655e-05
-0.000400948
9.93785e-05
-0.00043406
0.000102534
-0.000468128
0.000105831
-0.000503181
0.000109263
-0.000539242
0.000112822
-0.00057633
0.000116489
-0.000614451
0.000120243
-0.000653602
0.000124051
-0.000693764
0.000127873
-0.0007349
0.000131657
-0.000776949
0.000135336
-0.000819824
0.000138835
-0.000863408
0.000142061
-0.000907546
0.000144914
-0.000952046
0.000147285
-0.000996676
0.000149066
-0.00104116
0.000150167
-0.00108521
0.000150539
-0.00112851
0.00015021
-0.00117077
0.000149332
-0.00121179
0.000148287
-0.00125163
0.000147703
-0.00129049
0.000147998
0.000150638
-0.00132869
-0.000328964
0.00012265
-0.000358798
0.000126199
-0.000389319
0.0001299
-0.000420538
0.000133753
-0.00045246
0.000137753
-0.000485088
0.000141891
-0.000518413
0.000146147
-0.00055242
0.000150497
-0.000587083
0.000154905
-0.000622358
0.000159327
-0.000658188
0.000163704
-0.000694494
0.000167963
-0.000731173
0.000172015
-0.000768093
0.000175754
-0.000805089
0.000179058
-0.000841962
0.000181787
-0.00087847
0.000183792
-0.000914324
0.000184921
-0.000949192
0.000185035
-0.000982692
0.000184039
-0.0010144
0.000181923
-0.00104389
0.000178815
-0.00107072
0.000175121
-0.00109474
0.000171719
-0.00111608
0.000169335
0.000168637
-0.00113407
-0.000317761
-0.000345668
0.000154106
-0.000374001
0.000158232
-0.000402739
0.00016249
-0.000431854
0.000166869
-0.000461313
0.000171349
-0.00049107
0.000175903
-0.000521067
0.000180494
-0.000551233
0.000185071
-0.00058148
0.000189574
-0.0006117
0.000193924
-0.000641763
0.000198026
-0.000671513
0.000201765
-0.000700764
0.000205006
-0.000729297
0.000207592
-0.000756857
0.000209347
-0.000783144
0.000210079
-0.000807812
0.000209589
-0.000830461
0.000207684
-0.00085063
0.000204208
-0.000867795
0.000199088
-0.000881362
0.000192382
-0.000890669
0.000184428
-0.000895213
0.000176263
-0.000895176
0.000169298
0.000161932
-0.000888471
-0.000329492
0.000179651
-0.000355144
0.000183884
-0.000380847
0.000188194
-0.000406536
0.000192558
-0.000432134
0.000196947
-0.00045755
0.00020132
-0.000482681
0.000205624
-0.000507403
0.000209794
-0.000531576
0.000213746
-0.000555034
0.000217382
-0.00057759
0.000220582
-0.000599029
0.000223203
-0.000619104
0.000225081
-0.000637537
0.000226025
-0.000654012
0.000225821
-0.00066817
0.000224237
-0.000679606
0.000221025
-0.000687862
0.00021594
-0.000692409
0.000208755
-0.00069264
0.000199319
-0.000687846
0.000187588
-0.000677171
0.000173753
-0.00065963
0.000158722
-0.000635634
0.000145303
0.000127751
-0.000601453
-0.000310411
0.000202422
-0.000332921
0.000206395
-0.000355076
0.000210348
-0.000376766
0.000214248
-0.000397868
0.00021805
-0.000418244
0.000221696
-0.000437736
0.000225116
-0.000456166
0.000228224
-0.000473336
0.000230915
-0.000489021
0.000233067
-0.000502972
0.000234533
-0.00051491
0.000235142
-0.000524527
0.000234698
-0.000531482
0.00023298
-0.000535397
0.000229736
-0.000535857
0.000224697
-0.000532401
0.00021757
-0.000524521
0.00020806
-0.000511639
0.000195874
-0.0004931
0.000180779
-0.000468121
0.000162609
-0.000435799
0.000141431
-0.000394501
0.000117423
-0.000344962
9.5764e-05
6.56413e-05
-0.000282853
-0.000288584
0.000222037
-0.000307527
0.000225338
-0.000325661
0.000228481
-0.00034283
0.000231417
-0.000358863
0.000234083
-0.000373569
0.000236402
-0.000386736
0.000238283
-0.000398129
0.000239617
-0.00040749
0.000240276
-0.000414533
0.000240111
-0.000418947
0.000238947
-0.000420391
0.000236585
-0.000418492
0.0002328
-0.000412849
0.000227336
-0.000403025
0.000219912
-0.000388549
0.000210221
-0.000368912
0.000197933
-0.000343563
0.00018271
-0.00031189
0.000164202
-0.000273221
0.00014211
-0.000226728
0.000116115
-0.000171647
8.63513e-05
-0.000106269
5.20448e-05
-2.73622e-05
1.68574e-05
-1.97607e-05
5.80398e-05
-0.00026418
0.000238141
-0.000279164
0.000240323
-0.000292845
0.000242163
-0.000305022
0.000243593
-0.000315471
0.000244532
-0.000323949
0.00024488
-0.000330189
0.000244523
-0.000333899
0.000243327
-0.000334761
0.000241138
-0.00033243
0.000237779
-0.000326532
0.000233049
-0.000316666
0.000226719
-0.000302401
0.000218534
-0.000283274
0.00020821
-0.000258795
0.000195434
-0.000228443
0.000179868
-0.000191662
0.000161151
-0.000147868
0.000138916
-9.64213e-05
0.000112755
-3.66592e-05
8.23479e-05
3.22594e-05
4.71968e-05
0.000111069
7.54163e-06
0.000201373
-3.82587e-05
0.000304215
-8.59854e-05
-0.000138566
0.00042302
-0.000237368
0.000250409
-0.000248035
0.00025099
-0.000256873
0.000251
-0.000263631
0.000250351
-0.000268036
0.000248938
-0.000269793
0.000246637
-0.00026858
0.00024331
-0.000264047
0.000238795
-0.00025582
0.000232912
-0.000243497
0.000225456
-0.000226645
0.000216197
-0.000204805
0.000204879
-0.00017749
0.000191219
-0.000144186
0.000174905
-0.00010435
0.000155598
-5.74155e-05
0.000132934
-2.78941e-06
0.000106525
6.01516e-05
7.59753e-05
0.000132063
4.0844e-05
0.000213592
8.18735e-07
0.000305615
-4.48257e-05
0.000408564
-9.54076e-05
0.000524508
-0.000154203
0.000652804
-0.000214281
-0.000286518
0.000800756
-0.000208314
0.000258539
-0.000214335
0.000257011
-0.000217971
0.000254637
-0.000218925
0.000251305
-0.000216873
0.000246886
-0.000211467
0.000241232
-0.000202333
0.000234175
-0.000189066
0.000225529
-0.000171239
0.000215084
-0.000148392
0.000202608
-0.000120039
0.000187845
-8.56698e-05
0.00017051
-4.47438e-05
0.000150293
3.3019e-06
0.000126859
5.90551e-05
9.98445e-05
0.000123123
6.88655e-05
0.000196138
3.35104e-05
0.000278736
-6.62272e-06
0.000371614
-5.20334e-05
0.000475362
-0.000102929
0.000590941
-0.000160405
0.000718502
-0.000222969
0.000860226
-0.000295927
0.00101453
-0.000368586
-0.000462375
0.00119039
-0.00017717
0.00026225
-0.000178239
0.00025808
-0.000176343
0.000252741
-0.000171137
0.000246098
-0.000162246
0.000237996
-0.000149273
0.000228259
-0.00013179
0.000216692
-0.000109343
0.000203082
-8.14496e-05
0.00018719
-4.75991e-05
0.000168758
-7.25524e-06
0.000147501
4.01438e-05
0.000123111
9.5184e-05
9.52533e-05
0.000158473
6.35704e-05
0.000230638
2.76798e-05
0.000312321
-1.28174e-05
0.000404183
-5.8352e-05
0.000506874
-0.000109314
0.000621117
-0.000166276
0.000747449
-0.000229262
0.000886893
-0.000299849
0.00103934
-0.000375419
0.00120709
-0.000463669
0.00138759
-0.000549086
-0.000665489
0.0015907
-0.000144072
0.000261277
-0.000139898
0.000253906
-0.000132155
0.000244998
-0.000120448
0.000234391
-0.000104355
0.000221903
-8.34275e-05
0.000207331
-5.71866e-05
0.000190451
-2.51271e-05
0.000171022
1.32843e-05
0.000148779
5.86072e-05
0.000123435
0.000111426
9.46818e-05
0.00017235
6.21872e-05
0.000242007
2.55967e-05
0.000321043
-1.54657e-05
0.000410119
-6.13965e-05
0.000509903
-0.000112602
0.000621077
-0.000169526
0.00074429
-0.000232527
0.00088027
-0.000302255
0.00102949
-0.000378484
0.00119298
-0.000463341
0.00137045
-0.000552882
0.00156418
-0.000657406
0.00177079
-0.00075569
-0.000895164
0.00200046
-0.000109123
0.000255361
-9.94226e-05
0.000244206
-8.55223e-05
0.000231098
-6.69785e-05
0.000215848
-4.33196e-05
0.000198244
-1.40454e-05
0.000178056
2.13725e-05
0.000155033
6.34904e-05
0.000128904
0.000112891
9.9378e-05
0.000170183
6.61434e-05
0.000235995
2.88689e-05
0.00031098
-1.27976e-05
0.000395804
-5.92266e-05
0.000491143
-0.000110805
0.000597683
-0.000167937
0.000716104
-0.000231023
0.000847087
-0.000300509
0.000991262
-0.000376702
0.00114932
-0.000460311
0.00132166
-0.000550829
0.00150921
-0.000650884
0.00171154
-0.000755213
0.00193078
-0.00087665
0.00216288
-0.000987786
-0.0011501
0.00241782
-7.23963e-05
-5.6881e-05
0.00022869
-3.65049e-05
0.000210722
-1.07741e-05
0.000190117
2.08342e-05
0.000166636
5.88719e-05
0.000140019
0.000103919
0.000109986
0.000156583
7.62404e-05
0.000217495
3.84656e-05
0.000287311
-3.67195e-06
0.000366702
-5.05225e-05
0.000456357
-0.000102452
0.000556971
-0.00015984
0.00066924
-0.000223075
0.000793855
-0.000292552
0.000931486
-0.000368653
0.00108278
-0.000451801
0.00124831
-0.000542234
0.00142865
-0.000640657
0.00162415
-0.000746328
0.0018354
-0.000862136
0.00206197
-0.000981782
0.0023055
-0.00112018
0.00256164
-0.00124393
-0.00142786
0.0028394
-1.22887e-05
0.000207055
1.49037e-05
0.000183529
4.82005e-05
0.00015682
8.81783e-05
0.000126658
0.000135443
9.27545e-05
0.000190626
5.48025e-05
0.000254387
1.24796e-05
0.000327405
-3.45521e-05
0.000410376
-8.66436e-05
0.000504011
-0.000144157
0.000609021
-0.000207462
0.000726115
-0.000276935
0.000855987
-0.000352946
0.000999299
-0.000435865
0.00115667
-0.000526028
0.00132867
-0.000623791
0.00151575
-0.000729322
0.00171829
-0.000843189
0.00193651
-0.000964555
0.00217052
-0.00109615
0.00241991
-0.00123116
0.00268545
-0.00138572
0.00296301
-0.00152148
-0.00172445
0.0032596
3.43959e-05
0.000178969
6.87804e-05
0.000149145
0.000110066
0.000115534
0.000158886
7.78381e-05
0.000215902
3.57393e-05
0.000281798
-1.10939e-05
0.000357282
-6.30049e-05
0.000443078
-0.000120347
0.000539914
-0.00018348
0.000648522
-0.000252765
0.00076962
-0.00032856
0.000903901
-0.000411215
0.00105202
-0.000501061
0.00121455
-0.000598401
0.00139202
-0.0007035
0.00158481
-0.00081658
0.00179323
-0.00093774
0.00201727
-0.00106723
0.00225704
-0.00120432
0.00251195
-0.00135105
0.00278159
-0.00150081
0.00306555
-0.00166968
0.00336046
-0.00181639
-0.0020342
0.0036702
8.32756e-05
0.000144061
0.000125275
0.000107145
0.000175029
6.57809e-05
0.000233227
1.96392e-05
0.000300588
-3.16217e-05
0.000377848
-8.83535e-05
0.000465756
-0.000150913
0.000565067
-0.000219658
0.000676526
-0.00029494
0.000800861
-0.0003771
0.000938758
-0.000466458
0.00109085
-0.000563307
0.00125769
-0.000667898
0.00143971
-0.000780425
0.00163725
-0.000901036
0.0018504
-0.00102974
0.00207923
-0.00116656
0.00232326
-0.00131126
0.00258231
-0.00146338
0.00285505
-0.00162379
0.00314104
-0.00178679
0.00343838
-0.00196703
0.00374504
-0.00212305
-0.00234995
0.00406079
0.000134515
0.000101911
0.000184609
5.70516e-05
0.000243372
7.01773e-06
0.000311555
-4.85433e-05
0.000389925
-0.000109993
0.000479263
-0.000177692
0.000580347
-0.000251997
0.00069394
-0.000333251
0.000820774
-0.000421773
0.000961528
-0.000517854
0.00111681
-0.000621738
0.00128711
-0.000733613
0.00147282
-0.000853604
0.00167413
-0.000981733
0.00189107
-0.00111798
0.0021234
-0.00126206
0.00237074
-0.00141391
0.00263214
-0.00157265
0.00290697
-0.00173821
0.00319318
-0.00191
0.00349018
-0.00208379
0.0037946
-0.00227145
0.00410609
-0.00243454
-0.00266374
0.00441988
0.000188339
5.20467e-05
0.000247068
-1.67707e-06
0.000315447
-6.13616e-05
0.000394281
-0.000127378
0.000484381
-0.000200093
0.000586552
-0.000279862
0.000701573
-0.000367018
0.000830183
-0.00046186
0.000973049
-0.000564639
0.00113074
-0.000675549
0.00130371
-0.000794707
0.00149224
-0.000922144
0.00169643
-0.00105779
0.00191614
-0.00120144
0.002151
-0.00135284
0.00240029
-0.00151135
0.00266316
-0.00167678
0.00293808
-0.00184758
0.00322392
-0.00202405
0.00351801
-0.00220409
0.00381955
-0.00238533
0.00412395
-0.00257585
0.00443257
-0.00274317
-0.00296757
0.0047364
0.000245026
0.00031299
-6.96412e-05
0.000391649
-0.000140021
0.000481849
-0.000217578
0.000584424
-0.000302668
0.000700174
-0.000395612
0.00082984
-0.000496684
0.000974078
-0.000606098
0.00113343
-0.000723987
0.00130827
-0.000850389
0.0014988
-0.000985237
0.00170498
-0.00112833
0.00192654
-0.00127936
0.0021629
-0.00143779
0.00241318
-0.00160313
0.00267615
-0.00177431
0.00295037
-0.00195101
0.00323385
-0.00213106
0.00352487
-0.00231506
0.0038204
-0.00249962
0.0041194
-0.00268433
0.00441657
-0.00287302
0.00471476
-0.00304136
-0.00325459
0.00500178
0.000382748
-0.000147493
0.00047239
-0.000229662
0.000574687
-0.000319875
0.000690461
-0.000418442
0.000820463
-0.000525613
0.000965336
-0.000641557
0.00112558
-0.000766342
0.00130151
-0.000899921
0.00149324
-0.00104211
0.00170059
-0.00119259
0.00192313
-0.00135086
0.00216007
-0.0015163
0.00241034
-0.00168806
0.0026725
-0.00186529
0.00294479
-0.0020466
0.00322523
-0.00223145
0.00351145
-0.00241727
0.00380123
-0.00260485
0.0040915
-0.00278989
0.00438103
-0.00297386
0.00466449
-0.00315649
0.00494576
-0.00332262
-0.00351995
0.00521112
0.000456722
-0.000235918
0.000558057
-0.000330997
0.000673151
-0.000434969
0.000802765
-0.000548056
0.000947533
-0.000670382
0.00110792
-0.000801947
0.00128419
-0.000942607
0.00147633
-0.00109206
0.00168406
-0.00124984
0.00190676
-0.00141529
0.00214347
-0.00158758
0.00239288
-0.00176572
0.00265335
-0.00194853
0.00292292
-0.00213486
0.00319935
-0.00232304
0.00348024
-0.00251233
0.003763
-0.00270003
0.0040452
-0.00288705
0.00432396
-0.00306865
0.00459805
-0.00324795
0.00486279
-0.00342122
0.00512252
-0.00358235
-0.00376119
0.00536376
0.000535266
-0.000335604
0.000648968
-0.0004447
0.000777467
-0.000563467
0.000921392
-0.000691982
0.00108118
-0.000830172
0.00125703
-0.000977795
0.00144884
-0.00113442
0.0016562
-0.00129942
0.00187832
-0.00147196
0.00211406
-0.00165103
0.0023619
-0.00183541
0.00261998
-0.0020238
0.00288613
-0.00221468
0.00315796
-0.00240668
0.00343292
-0.00259799
0.00370837
-0.00278779
0.00398178
-0.00297344
0.00425075
-0.00315602
0.00451292
-0.00333082
0.00476727
-0.0035023
0.00501021
-0.00366417
0.00524614
-0.00381828
-0.00397818
0.00546313
0.000618663
0.000745314
-0.000571351
0.000887656
-0.000705809
0.0010461
-0.000850431
0.0012208
-0.00100487
0.00141157
-0.00116856
0.00161785
-0.0013407
0.00183872
-0.00152029
0.00207284
-0.00170608
0.0023185
-0.00189668
0.00257362
-0.00209054
0.00283587
-0.00228604
0.00310268
-0.00248149
0.00337137
-0.00267538
0.00363933
-0.00286595
0.00390395
-0.00305241
0.004163
-0.00323249
0.00441444
-0.00340746
0.00465663
-0.003573
0.00488894
-0.00373462
0.00510912
-0.00388435
0.00532126
-0.00403042
-0.00417293
0.00551601
0.000847095
-0.000711366
0.00100347
-0.000862179
0.00117629
-0.00102326
0.00136531
-0.00119389
0.00156987
-0.00137312
0.00178887
-0.00155971
0.00202082
-0.00175224
0.0022638
-0.00194906
0.00251555
-0.00214843
0.00277354
-0.00234854
0.00303508
-0.00254758
0.00329742
-0.00274382
0.00355784
-0.00293581
0.0038139
-0.003122
0.00406333
-0.00330184
0.00430441
-0.00347358
0.00453572
-0.00363877
0.00475642
-0.00379371
0.00496645
-0.00394465
0.00516478
-0.00408269
0.00535513
-0.00422076
-0.00434793
0.00553013
0.000954066
-0.000864917
0.0011243
-0.00103242
0.0013109
-0.00120986
0.00151311
-0.0013961
0.0017297
-0.0015897
0.00195899
-0.001789
0.00219889
-0.00199214
0.00244696
-0.00219713
0.00270051
-0.00240198
0.0029567
-0.00260473
0.0032127
-0.00280358
0.00346581
-0.00299693
0.00371357
-0.00318357
0.00395393
-0.00336236
0.00418522
-0.00353313
0.0044064
-0.00369476
0.00461675
-0.00384912
0.00481627
-0.00399322
0.00500539
-0.00413377
0.00518411
-0.00426141
0.00535583
-0.00439247
-0.00450811
0.00551601
0.00106568
0.00124919
-0.00121593
0.00144845
-0.00140911
0.0016621
-0.00160975
0.00188831
-0.00181592
0.00212482
-0.00202552
0.00236902
-0.00223634
0.00261804
-0.00244616
0.00286893
-0.00265287
0.00311878
-0.00285458
0.00336487
-0.00304967
0.00360482
-0.00323687
0.00383664
-0.00341539
0.00405892
-0.00358464
0.00427068
-0.00374489
0.00447165
-0.00389573
0.0046618
-0.00403927
0.00484183
-0.00417325
0.00501256
-0.0043045
0.00517476
-0.00442361
0.00533121
-0.00454892
-0.0046556
0.00547869
0.00137674
-0.00141165
0.00158697
-0.00161934
0.00180973
-0.00183251
0.0020426
-0.00204879
0.0022828
-0.00226572
0.00252732
-0.00248085
0.00277306
-0.0026919
0.00301704
-0.00289686
0.00325654
-0.00309407
0.0034892
-0.00328233
0.00371317
-0.00346084
0.00392714
-0.00362936
0.00413041
-0.00378791
0.00432274
-0.00393723
0.00450456
-0.00407755
0.00467641
-0.00421111
0.00483951
-0.00433636
0.00499489
-0.00445987
0.00514375
-0.00457247
0.00528828
-0.00469345
-0.00479392
0.00542661
0.00150518
-0.00161796
0.00172414
-0.00183829
0.00195316
-0.00206153
0.00218931
-0.00228493
0.00242939
-0.0025058
0.00267022
-0.00272167
0.00290871
-0.00293039
0.0031421
-0.00313025
0.00336808
-0.00332005
0.00358488
-0.00349913
0.00379134
-0.0036673
0.00398689
-0.0038249
0.00417154
-0.00397256
0.00434572
-0.00411141
0.0045104
-0.00424222
0.00466651
-0.00436722
0.0048156
-0.00448544
0.00495866
-0.00460294
0.00509717
-0.00471098
0.00523267
-0.00482895
-0.0049255
0.00536425
0.0016324
0.00185738
-0.00206327
0.00208943
-0.00229358
0.00232523
-0.00252073
0.00256142
-0.002742
0.00279484
-0.00295509
0.00302267
-0.00315822
0.00324262
-0.0033502
0.00345298
-0.00353042
0.0036527
-0.00369885
0.00384134
-0.00385595
0.00401906
-0.00400262
0.00418649
-0.00413999
0.00434457
-0.00426948
0.0044946
-0.00439226
0.00463773
-0.00451035
0.00477563
-0.00462334
0.00490911
-0.00473643
0.00503976
-0.00484163
0.0051685
-0.00495769
-0.00505204
0.00529504
0.001984
-0.00229121
0.00221565
-0.00252524
0.00244752
-0.0027526
0.00267632
-0.0029708
0.00289918
-0.00317794
0.00311376
-0.00337281
0.00331841
-0.00355485
0.00351215
-0.00372416
0.00369468
-0.00388137
0.00386625
-0.00402753
0.0040276
-0.00416398
0.00417984
-0.00429223
0.00432422
-0.00441386
0.0044622
-0.00453024
0.00459496
-0.00464311
0.00472413
-0.0047525
0.00485026
-0.00486256
0.00497501
-0.00496637
0.00509864
-0.00508133
-0.00517471
0.00522131
0.0021014
-0.00251887
0.00232927
-0.00275311
0.00255393
-0.00297725
0.00277238
-0.00318925
0.00298228
-0.00338784
0.00318195
-0.00357248
0.00337048
-0.00374338
0.00354763
-0.00390131
0.00371377
-0.00404751
0.00386974
-0.0041835
0.00401671
-0.00431095
0.00415605
-0.00443158
0.00428916
-0.00454696
0.00441748
-0.00465856
0.00454212
-0.00476775
0.00466455
-0.00487493
0.00478503
-0.00498305
0.0049053
-0.00508664
0.00502492
-0.00520095
-0.00529435
0.00514456
0.00220728
0.00242825
-0.00297408
0.0026429
-0.0031919
0.00284878
-0.00339514
0.00304421
-0.00358326
0.00322826
-0.00375653
0.00340076
-0.00391588
0.00356216
-0.00406271
0.00371337
-0.00419872
0.00385565
-0.00432578
0.00399041
-0.00444571
0.00411912
-0.00456029
0.00424316
-0.004671
0.00436387
-0.00477927
0.00448217
-0.00488605
0.00459937
-0.00499212
0.00471544
-0.00509912
0.00483219
-0.00520339
0.00494848
-0.00531724
-0.00541155
0.00506568
0.0025112
-0.00318549
0.00271374
-0.00339444
0.00290562
-0.00358702
0.00308593
-0.00376356
0.00325449
-0.00392509
0.0034118
-0.00407319
0.00355886
-0.00420976
0.00369696
-0.00433683
0.0038276
-0.00445641
0.00395226
-0.00457037
0.00407239
-0.00468041
0.00418923
-0.00478784
0.00430393
-0.00489398
0.00441727
-0.00499939
0.00453029
-0.00510514
0.00464278
-0.00521162
0.00475665
-0.00531725
0.00486998
-0.00543057
-0.00552677
0.0049852
0.00257747
0.00276652
-0.00358349
0.00294379
-0.00376429
0.0031091
-0.00392887
0.00326298
-0.00407897
0.00340645
-0.00421666
0.00354088
-0.0043442
0.00366781
-0.00446376
0.00378878
-0.00457738
0.00390524
-0.00468684
0.00401849
-0.00479367
0.00412962
-0.00489897
0.00423954
-0.0050039
0.00434886
-0.00510871
0.00445842
-0.00521469
0.0045679
-0.00532111
0.00467922
-0.00542858
0.00478977
-0.00554111
-0.00564042
0.00490341
0.00280204
-0.00375843
0.00296479
-0.00392703
0.00311585
-0.00407993
0.0032563
-0.00421941
0.00338755
-0.00434791
0.00351117
-0.00446782
0.00362878
-0.00458136
0.00374185
-0.00469045
0.0038517
-0.00479669
0.00395944
-0.00490141
0.00406596
-0.00500549
0.00417197
-0.00510991
0.00427793
-0.00521467
0.00438446
-0.00532123
0.00449126
-0.00542791
0.0046002
-0.00553751
0.00470804
-0.00564896
-0.00575287
0.00482049
0.00282163
0.00297051
-0.00407592
0.0031085
-0.00421792
0.00323704
-0.00434795
0.00335776
-0.00446863
0.00347232
-0.00458238
0.00358225
-0.00469129
0.0036889
-0.0047971
0.0037934
-0.00490119
0.00389666
-0.00500467
0.00399938
-0.00510821
0.00410207
-0.0052126
0.0042051
-0.0053177
0.00430885
-0.00542498
0.00441312
-0.00553218
0.00451962
-0.00564401
0.00462493
-0.00575427
-0.00586433
0.00473639
0.00296305
-0.00421201
0.00308937
-0.00434424
0.00320759
-0.00446618
0.00331943
-0.00458047
0.00342647
-0.00468942
0.00353011
-0.00479493
0.00363153
-0.00489852
0.00373165
-0.00500131
0.00383118
-0.00510419
0.00393065
-0.00520768
0.00403042
-0.00531237
0.00413077
-0.00541805
0.00423189
-0.0055261
0.00433369
-0.00563398
0.00443737
-0.00574769
0.00454011
-0.00585701
-0.00597597
0.00465175
0.0029445
0.00306064
-0.00446038
0.00317009
-0.00457563
0.00327451
-0.00468489
0.00337535
-0.00479026
0.00347383
-0.00489341
0.00357092
-0.0049956
0.00366735
-0.00509775
0.00376367
-0.00520051
0.00386026
-0.00530427
0.00395737
-0.00540948
0.00405521
-0.00551589
0.00415381
-0.00562471
0.00425325
-0.00573342
0.00435374
-0.00584817
0.00445274
-0.00595601
-0.00608681
0.00456359
0.00302314
-0.00456782
0.00312523
-0.00467771
0.0032235
-0.00478316
0.00331924
-0.00488599
0.00341345
-0.00498762
0.00350691
-0.00508907
0.00360019
-0.00519102
0.00369367
-0.005294
0.00378766
-0.00539825
0.00388229
-0.00550411
0.00397773
-0.00561134
0.00407394
-0.00572091
0.00417115
-0.00583063
0.00426904
-0.00594606
0.00436707
-0.00605403
-0.00618302
0.00446328
0.00298072
0.00307663
-0.00477363
0.00316977
-0.00487629
0.0032612
-0.00497743
0.00335176
-0.00507818
0.00344204
-0.00517934
0.00353246
-0.00528145
0.00362332
-0.00538486
0.0037148
-0.00548974
0.00380702
-0.00559633
0.00390008
-0.0057044
0.00399393
-0.00581476
0.00408878
-0.00592548
0.00418398
-0.00604126
0.00428065
-0.0061507
-0.00627915
0.00437678
0.00302437
0.00311318
-0.00496509
0.00320094
-0.00506519
0.0032883
-0.00516554
0.00337572
-0.00526676
0.00346351
-0.00536924
0.00355188
-0.00547322
0.00364095
-0.00557881
0.0037308
-0.00568618
0.00382151
-0.00579512
0.00391303
-0.00590628
0.00400551
-0.00601796
0.0040986
-0.00613435
0.00419283
-0.00624493
-0.00637345
0.00428713
0.00305442
-0.00505018
0.00313896
-0.00514973
0.00322345
-0.00525004
0.00330823
-0.00535155
0.00339353
-0.00545453
0.00347948
-0.00555917
0.00356618
-0.00566551
0.00365369
-0.00577368
0.00374206
-0.00588349
0.00383125
-0.00599546
0.00392144
-0.00610814
0.00401225
-0.00622517
0.0041044
-0.00633708
-0.00646609
0.00419704
0.00299398
0.00307563
-0.00523138
0.00315747
-0.00533188
0.00323975
-0.00543383
0.00332263
-0.00553741
0.00340621
-0.00564275
0.00349056
-0.00574987
0.00357573
-0.00585885
0.00366176
-0.00596953
0.00374862
-0.00608233
0.00383648
-0.006196
0.00392506
-0.00631375
0.00401503
-0.00642704
-0.00655651
0.00410544
0.00301119
0.00309052
-0.0054112
0.00317037
-0.00551368
0.00325088
-0.00561792
0.00333211
-0.00572398
0.00341412
-0.00583188
0.00349694
-0.00594166
0.00358062
-0.00605321
0.00366514
-0.00616685
0.00375067
-0.00628153
0.00383695
-0.00640003
0.00392464
-0.00651472
-0.00664473
0.00401285
0.00302271
0.0031002
-0.00559117
0.00317835
-0.00569607
0.00325723
-0.00580286
0.00333689
-0.00591153
0.00341735
-0.00602212
0.00349866
-0.00613453
0.00358082
-0.006249
0.00366398
-0.00636469
0.00374792
-0.00648398
0.00383327
-0.00660007
-0.0067306
0.00391914
0.00302928
0.00310508
-0.00577188
0.00318161
-0.00587939
0.00325889
-0.00598882
0.00333697
-0.0061002
0.0034159
-0.00621345
0.00349566
-0.00632877
0.00357642
-0.00644545
0.00365798
-0.00656553
0.00374091
-0.006683
-0.00681408
0.00382439
0.0030311
-0.00584533
0.00310525
-0.00595354
0.00318016
-0.00606372
0.00325584
-0.00617588
0.00333234
-0.00628996
0.00340969
-0.00640611
0.00348801
-0.00652377
0.00356713
-0.00664466
0.0036476
-0.00676347
-0.00689509
0.00372861
0.00295643
0.0030282
-0.00602531
0.0031007
-0.00613622
0.00317395
-0.00624914
0.00324802
-0.00636402
0.00332291
-0.006481
0.00339875
-0.00659961
0.0034754
-0.0067213
0.00355335
-0.00684142
-0.00697358
0.00363183
0.00295047
0.00302054
-0.00620629
0.00309135
-0.00631995
0.00316294
-0.00643562
0.00323535
-0.00655341
0.00330868
-0.00667294
0.00338279
-0.00679541
0.00345818
-0.00691681
-0.00704947
0.00353407
0.00293971
0.00300804
-0.00638828
0.00307714
-0.00650472
0.00314703
-0.00662329
0.0032178
-0.00674372
0.00328935
-0.00686696
0.00336212
-0.00698958
-0.00712271
0.00343536
0.00292406
0.00299063
0.00305796
-0.00669063
0.00312615
-0.0068119
0.00319508
-0.0069359
0.00326519
-0.00705969
-0.00719326
0.00333574
0.00296818
0.00303374
-0.00687746
0.00310002
-0.00700218
0.00316742
-0.00712709
-0.00726106
0.00323522
0.00294061
0.00300421
-0.00706578
0.00306885
-0.00719174
-0.00732606
0.00313386
0.00290766
0.00296951
-0.00725359
-0.00738823
0.00303168
0.00286943
0.00292873
0.00286943
0.0072536
0.00738823
0.00292873
0.00290766
0.00706578
0.00296951
0.00719174
0.00732606
0.00303168
0.00294061
0.00687746
0.00300421
0.00700218
0.00306885
0.00712709
0.00726106
0.00313386
0.00296818
0.00669063
0.00303374
0.0068119
0.00310002
0.0069359
0.00316742
0.00705969
0.00719326
0.00323522
0.00292406
0.00638828
0.00299063
0.00650472
0.00305796
0.00662329
0.00312615
0.00674372
0.00319508
0.00686696
0.00326519
0.00698958
0.00712271
0.00333574
0.00293971
0.00620629
0.00300804
0.00631995
0.00307714
0.00643562
0.00314703
0.00655341
0.0032178
0.00667295
0.00328935
0.00679542
0.00336212
0.00691681
0.00704947
0.00343536
0.00295047
0.00602531
0.00302054
0.00613622
0.00309135
0.00624914
0.00316294
0.00636403
0.00323535
0.006481
0.00330868
0.00659962
0.00338279
0.0067213
0.00345818
0.00684143
0.00697358
0.00353407
0.00295643
0.00584533
0.0030282
0.00595354
0.0031007
0.00606372
0.00317395
0.00617588
0.00324802
0.00628996
0.00332291
0.00640611
0.00339875
0.00652377
0.0034754
0.00664466
0.00355335
0.00676347
0.0068951
0.00363183
0.00295765
0.0056663
0.0030311
0.00577188
0.00310525
0.00587939
0.00318016
0.00598882
0.00325584
0.0061002
0.00333234
0.00621345
0.00340969
0.00632877
0.00348801
0.00644545
0.00356713
0.00656554
0.0036476
0.006683
0.00681409
0.00372861
0.00302928
0.00559117
0.00310508
0.00569608
0.00318161
0.00580286
0.00325889
0.00591154
0.00333697
0.00602212
0.0034159
0.00613453
0.00349566
0.006249
0.00357642
0.00636469
0.00365798
0.00648398
0.00374091
0.00660007
0.0067306
0.00382439
0.00302272
0.00541121
0.0031002
0.00551369
0.00317835
0.00561792
0.00325723
0.00572398
0.00333689
0.00583188
0.00341735
0.00594167
0.00349866
0.00605321
0.00358082
0.00616685
0.00366398
0.00628153
0.00374792
0.00640003
0.00383327
0.00651473
0.00664473
0.00391914
0.00301119
0.00523138
0.00309052
0.00533188
0.00317038
0.00543383
0.00325088
0.00553741
0.00333211
0.00564275
0.00341412
0.00574987
0.00349694
0.00585885
0.00358062
0.00596953
0.00366514
0.00608233
0.00375067
0.006196
0.00383695
0.00631375
0.00392463
0.00642705
0.00655651
0.00401285
0.00299398
0.00505018
0.00307563
0.00514973
0.00315747
0.00525004
0.00323975
0.00535155
0.00332263
0.00545454
0.00340621
0.00555917
0.00349056
0.00566552
0.00357573
0.00577368
0.00366176
0.0058835
0.00374862
0.00599547
0.00383648
0.00610814
0.00392506
0.00622517
0.00401503
0.00633708
0.0064661
0.00410544
0.00305442
0.0049651
0.00313896
0.00506519
0.00322345
0.00516555
0.00330824
0.00526677
0.00339353
0.00536924
0.00347948
0.00547322
0.00356618
0.00557881
0.00365369
0.00568618
0.00374207
0.00579512
0.00383125
0.00590628
0.00392144
0.00601796
0.00401225
0.00613435
0.0041044
0.00624493
0.00637346
0.00419704
0.00302438
0.00477363
0.00311318
0.00487629
0.00320094
0.00497743
0.0032883
0.00507818
0.00337572
0.00517935
0.00346351
0.00528145
0.00355188
0.00538486
0.00364095
0.00548974
0.0037308
0.00559633
0.00382151
0.00570441
0.00391303
0.00581476
0.00400551
0.00592548
0.0040986
0.00604126
0.00419283
0.00615071
0.00627916
0.00428713
0.00298072
0.00456782
0.00307663
0.00467772
0.00316977
0.00478316
0.0032612
0.004886
0.00335176
0.00498763
0.00344204
0.00508907
0.00353246
0.00519103
0.00362332
0.005294
0.0037148
0.00539825
0.00380702
0.00550411
0.00390008
0.00561134
0.00399393
0.00572092
0.00408878
0.00583063
0.00418398
0.00594607
0.00428065
0.00605403
0.00618303
0.00437678
0.00302314
0.00446038
0.00312523
0.00457563
0.00322351
0.00468489
0.00331924
0.00479026
0.00341345
0.00489341
0.00350691
0.00499561
0.00360019
0.00509775
0.00369367
0.00520051
0.00378766
0.00530427
0.00388229
0.00540948
0.00397773
0.00551589
0.00407394
0.00562471
0.00417115
0.00573342
0.00426904
0.00584818
0.00436706
0.00595601
0.00608682
0.00446328
0.0029445
0.00421201
0.00306065
0.00434424
0.00317009
0.00446618
0.00327451
0.00458047
0.00337535
0.00468942
0.00347383