/*--------------------------------*- C++ -*----------------------------------*\
  =========                 |
  \\      /  F ield         | OpenFOAM: The Open Source CFD Toolbox
   \\    /   O peration     | Website:  https://openfoam.org
    \\  /    A nd           | Version:  7
     \\/     M anipulation  |
\*---------------------------------------------------------------------------*/
FoamFile
{
    version     2.0;
    format      ascii;
    class       volVectorField;
    location    "15";
    object      U;
}
// * * * * * * * * * * * * * * * * * * * * * * * * * * * * * * * * * * * * * //

dimensions      [0 1 -1 0 0 0 0];

internalField   nonuniform List<vector> 
24200
(
(-0.157594 0.00203586 3.64228e-21)
(-0.166013 0.00200631 3.5359e-21)
(-0.17413 0.00198304 1.68696e-21)
(-0.181984 0.00196563 1.36057e-21)
(-0.189612 0.0019536 -2.6755e-21)
(-0.197045 0.00194632 7.2489e-22)
(-0.204309 0.00194311 -2.62864e-21)
(-0.211426 0.00194312 2.10725e-21)
(-0.218412 0.0019454 2.30586e-21)
(-0.225281 0.00194878 -6.16736e-23)
(-0.232039 0.00195194 1.52331e-22)
(-0.238689 0.00195332 8.52287e-22)
(-0.245225 0.00195116 8.84926e-22)
(-0.251638 0.00194347 -1.97287e-21)
(-0.257911 0.00192815 -1.15853e-22)
(-0.264021 0.001903 -2.81322e-21)
(-0.269938 0.001866 -4.647e-21)
(-0.275627 0.00181558 3.09726e-21)
(-0.281051 0.00175107 1.43515e-21)
(-0.286173 0.00167347 1.0841e-21)
(-0.290961 0.00158617 1.39156e-21)
(-0.295401 0.00149613 1.65654e-21)
(-0.299513 0.00141523 1.05503e-21)
(-0.303329 0.00135597 -1.03343e-21)
(-0.306888 0.00132792 1.12849e-21)
(-0.310502 0.00137955 -6.41572e-22)
(-0.156554 0.00609364 5.90759e-21)
(-0.164812 0.00600386 9.64639e-22)
(-0.172752 0.00593274 6.79585e-21)
(-0.180414 0.00587905 -4.33292e-21)
(-0.187833 0.00584128 8.1227e-21)
(-0.195037 0.0058176 5.44385e-21)
(-0.202052 0.0058059 3.91209e-21)
(-0.208898 0.0058037 1.46219e-21)
(-0.21559 0.00580808 -2.88067e-21)
(-0.22214 0.00581562 6.42658e-21)
(-0.228552 0.00582234 3.46577e-21)
(-0.234827 0.00582359 -4.65881e-21)
(-0.24096 0.00581411 -1.80122e-21)
(-0.246938 0.00578803 8.47439e-21)
(-0.252744 0.00573898 -7.90447e-22)
(-0.258353 0.00566045 7.46639e-21)
(-0.263733 0.00554627 5.52192e-21)
(-0.268849 0.00539154 -6.23929e-21)
(-0.273661 0.00519398 -1.62238e-21)
(-0.278127 0.00495598 6.16086e-22)
(-0.282213 0.00468701 -1.8376e-21)
(-0.285893 0.004407 -3.8569e-21)
(-0.28918 0.00415093 2.23453e-21)
(-0.292099 0.00395895 2.39035e-21)
(-0.294649 0.00386026 -7.54536e-22)
(-0.297131 0.00398942 6.09064e-21)
(-0.154481 0.0101048 -2.00878e-20)
(-0.162417 0.00995114 -1.37893e-20)
(-0.170007 0.00982799 -6.7119e-21)
(-0.177287 0.00973334 -2.17345e-20)
(-0.184289 0.00966461 -7.06919e-21)
(-0.19104 0.00961878 -1.69496e-20)
(-0.197561 0.00959232 -6.49243e-21)
(-0.20387 0.00958109 2.27453e-21)
(-0.20998 0.00958028 -1.09587e-20)
(-0.215898 0.00958424 3.54785e-21)
(-0.221627 0.00958638 -6.68318e-21)
(-0.227164 0.0095791 3.21081e-21)
(-0.232501 0.00955374 3.28057e-21)
(-0.237622 0.00950064 -5.6911e-21)
(-0.242509 0.00940931 9.52659e-21)
(-0.247132 0.00926893 -1.43966e-20)
(-0.25146 0.00906904 1.08386e-21)
(-0.255452 0.008801 -3.73639e-22)
(-0.259066 0.00846 3.39207e-21)
(-0.262256 0.00804829 -4.45467e-21)
(-0.264974 0.00757928 -3.62995e-22)
(-0.267183 0.0070829 -3.28161e-21)
(-0.268877 0.00661484 -4.23971e-21)
(-0.270073 0.00624925 -1.14664e-22)
(-0.270695 0.00603946 5.78185e-22)
(-0.270969 0.00616886 -1.07757e-20)
(-0.151386 0.014039 -5.00356e-21)
(-0.158845 0.0138154 -7.44498e-21)
(-0.165914 0.0136334 -1.51403e-20)
(-0.172627 0.0134901 2.74067e-20)
(-0.179012 0.013382 5.42184e-22)
(-0.185091 0.0133047 2.30841e-20)
(-0.190882 0.0132532 1.64959e-20)
(-0.196399 0.0132219 -9.2783e-21)
(-0.20165 0.013204 1.75166e-20)
(-0.206639 0.0131918 -5.00852e-21)
(-0.211363 0.0131762 8.84795e-21)
(-0.215816 0.0131468 1.36075e-21)
(-0.219985 0.0130916 4.18085e-21)
(-0.223853 0.0129976 -1.09486e-20)
(-0.227396 0.0128502 -7.32445e-21)
(-0.230584 0.0126344 8.07825e-21)
(-0.23338 0.0123355 7.49577e-21)
(-0.235742 0.0119405 -1.31758e-20)
(-0.237623 0.0114409 1.03509e-20)
(-0.238971 0.0108367 2.95219e-21)
(-0.239731 0.0101418 4.47557e-21)
(-0.239845 0.00939147 1.67403e-20)
(-0.239284 0.0086562 -4.29993e-21)
(-0.238055 0.00805008 -3.60444e-21)
(-0.236008 0.00766668 -8.56433e-21)
(-0.233102 0.00766233 9.754e-22)
(-0.14729 0.0178666 -6.7767e-22)
(-0.154118 0.0175648 1.74109e-20)
(-0.160502 0.0173148 1.1681e-20)
(-0.166469 0.0171126 -5.11948e-21)
(-0.172044 0.0169535 -1.30292e-20)
(-0.177243 0.0168321 8.49102e-21)
(-0.18208 0.016742 -4.45026e-21)
(-0.186563 0.0166757 -3.50356e-21)
(-0.190695 0.0166248 9.12092e-21)
(-0.194475 0.0165796 8.08113e-22)
(-0.197896 0.0165285 3.69575e-21)
(-0.200946 0.0164586 -6.37008e-21)
(-0.203608 0.016355 -1.7112e-20)
(-0.205861 0.0162013 -7.57439e-21)
(-0.207676 0.0159795 -7.36417e-22)
(-0.209022 0.0156705 4.09947e-21)
(-0.209859 0.0152554 -1.65609e-20)
(-0.210143 0.0147166 1.03947e-20)
(-0.209824 0.014041 -3.25123e-21)
(-0.208845 0.0132238 1.079e-20)
(-0.207145 0.0122761 -1.76393e-20)
(-0.204653 0.0112315 7.63263e-21)
(-0.201306 0.0101658 -1.48311e-20)
(-0.197107 0.00923046 9.32881e-22)
(-0.19189 0.00859847 9.1534e-21)
(-0.184973 0.00826206 3.54985e-21)
(-0.148267 0.0211691 5.33648e-22)
(-0.153807 0.0208396 -1.62307e-20)
(-0.158859 0.0205659 -5.27932e-21)
(-0.16344 0.020342 1.59092e-21)
(-0.167563 0.0201611 -3.87626e-20)
(-0.171236 0.0200154 -2.05851e-20)
(-0.17446 0.0198961 1.74828e-20)
(-0.177234 0.0197929 -2.47931e-20)
(-0.179549 0.019694 -4.89936e-21)
(-0.181395 0.019586 -3.18578e-20)
(-0.182755 0.0194534 -9.07615e-21)
(-0.183606 0.0192788 3.13695e-20)
(-0.183924 0.0190429 3.12361e-20)
(-0.183677 0.0187245 9.66045e-22)
(-0.182829 0.0183011 1.61748e-21)
(-0.18134 0.0177498 -8.35064e-21)
(-0.179165 0.0170485 -2.12119e-20)
(-0.176254 0.0161792 5.51116e-21)
(-0.172549 0.0151307 -3.30628e-20)
(-0.167987 0.0139075 1.74293e-20)
(-0.16249 0.0125354 2.37613e-21)
(-0.155968 0.0110833 -8.2085e-21)
(-0.148398 0.00971889 -2.34547e-20)
(-0.139796 0.00876308 1.42984e-20)
(-0.128199 0.00783201 1.91801e-20)
(-0.141323 0.0245994 2.05134e-20)
(-0.145869 0.0241776 2.34152e-20)
(-0.149844 0.0238178 3.07768e-20)
(-0.153261 0.023513 2.55597e-20)
(-0.156126 0.0232551 3.50265e-20)
(-0.15844 0.0230348 2.99205e-20)
(-0.160199 0.0228419 7.85923e-21)
(-0.161397 0.0226643 6.99844e-21)
(-0.16202 0.0224885 -1.80783e-20)
(-0.162051 0.0222992 1.03132e-20)
(-0.161468 0.0220788 1.6187e-20)
(-0.160245 0.0218077 -2.78616e-21)
(-0.158353 0.0214642 -2.74065e-20)
(-0.155758 0.0210243 -3.20756e-21)
(-0.152423 0.0204628 1.25292e-20)
(-0.148307 0.0197533 3.26296e-21)
(-0.143364 0.0188701 4.24554e-21)
(-0.137548 0.0177901 1.47749e-20)
(-0.130802 0.0164957 1.08499e-20)
(-0.123068 0.0149825 -1.17881e-20)
(-0.114273 0.0132635 9.41686e-21)
(-0.104309 0.0113944 1.351e-20)
(-0.0930668 0.00950932 8.06599e-21)
(-0.0811296 0.00812038 -4.57767e-20)
(-0.0644099 0.00644467 -1.91065e-20)
(-0.133322 0.0278294 -3.67248e-20)
(-0.136733 0.0273009 -2.68995e-20)
(-0.139481 0.0268392 -4.153e-20)
(-0.141573 0.026436 -2.39164e-20)
(-0.14301 0.026082 -1.32793e-20)
(-0.143788 0.0257665 1.10006e-20)
(-0.143897 0.0254776 -1.17007e-20)
(-0.143324 0.025202 -3.58834e-21)
(-0.142052 0.0249244 -1.58387e-20)
(-0.140057 0.0246278 5.41965e-21)
(-0.137314 0.0242928 -3.76577e-21)
(-0.133793 0.0238981 -1.31262e-20)
(-0.129463 0.0234198 1.79137e-20)
(-0.124287 0.0228321 5.44218e-20)
(-0.118228 0.0221074 -1.01922e-20)
(-0.111244 0.0212169 2.82044e-20)
(-0.103293 0.020132 -2.32009e-21)
(-0.0943316 0.0188258 -1.69041e-21)
(-0.0843088 0.0172743 1.50892e-20)
(-0.0731754 0.0154653 -1.62497e-20)
(-0.0608666 0.0133952 -2.03831e-20)
(-0.0472983 0.0111135 -2.5391e-20)
(-0.0321584 0.00866081 2.85635e-20)
(-0.0169692 0.00648536 6.00907e-21)
(0.00485172 0.00479365 4.27152e-20)
(-0.124301 0.0308345 -2.71165e-20)
(-0.126441 0.0301843 2.92214e-20)
(-0.12782 0.0296041 5.26902e-20)
(-0.128439 0.0290844 3.93296e-20)
(-0.128294 0.0286144 5.44783e-21)
(-0.127374 0.0281823 -1.00476e-20)
(-0.125665 0.0277747 2.2571e-20)
(-0.123148 0.0273769 2.47192e-20)
(-0.119802 0.0269721 4.3503e-20)
(-0.115599 0.0265417 -5.04643e-20)
(-0.110511 0.0260652 -3.41302e-20)
(-0.104506 0.0255194 3.62381e-20)
(-0.097549 0.0248793 -4.29145e-20)
(-0.0896039 0.0241174 -4.73245e-20)
(-0.0806328 0.0232047 -1.55739e-20)
(-0.0705972 0.0221108 -5.50257e-20)
(-0.0594571 0.020805 -9.42671e-21)
(-0.0471738 0.0192583 -4.72809e-21)
(-0.0337036 0.0174413 -2.27009e-20)
(-0.0190103 0.0153376 3.25259e-20)
(-0.00302923 0.012924 -5.18092e-20)
(0.0142406 0.0102548 4.59916e-20)
(0.0332999 0.00726046 -3.48702e-20)
(0.0521275 0.00421393 -8.8794e-21)
(0.0787394 0.00245779 6.62741e-21)
(-0.114294 0.033593 2.37961e-20)
(-0.115036 0.032806 2.69137e-21)
(-0.114914 0.0320905 -1.14207e-20)
(-0.113921 0.031436 -4.1882e-20)
(-0.112048 0.0308305 -1.57199e-20)
(-0.109282 0.0302607 -3.10754e-20)
(-0.105602 0.029712 -1.41374e-20)
(-0.100987 0.0291684 1.2537e-20)
(-0.0954089 0.0286118 -2.59703e-21)
(-0.0888401 0.0280225 4.48726e-20)
(-0.0812484 0.0273787 7.47507e-20)
(-0.0726002 0.0266562 -4.75234e-20)
(-0.0628604 0.0258289 -9.92656e-21)
(-0.0519932 0.0248685 -1.21575e-20)
(-0.0399623 0.0237452 3.7822e-20)
(-0.0267318 0.0224276 4.11161e-22)
(-0.0122655 0.0208842 2.98753e-20)
(0.00346801 0.0190844 4.83079e-20)
(0.020508 0.0169962 6.64216e-21)
(0.0388696 0.0146037 6.5312e-21)
(0.0586386 0.0118582 5.80617e-20)
(0.0796768 0.00883936 -1.50392e-20)
(0.102785 0.0053615 1.14497e-20)
(0.125023 0.00171024 4.68821e-20)
(0.156859 -0.000966547 -3.76882e-20)
(-0.10333 0.0360857 4.11902e-20)
(-0.102553 0.0351471 1.6631e-20)
(-0.100802 0.0342803 -4.33732e-20)
(-0.0980659 0.0334736 6.65085e-21)
(-0.0943318 0.0327138 4.70484e-20)
(-0.0895806 0.0319866 -2.32769e-21)
(-0.0837894 0.0312762 -4.82491e-20)
(-0.0769322 0.0305652 -5.29396e-20)
(-0.0689802 0.0298347 -5.97256e-20)
(-0.059902 0.0290639 -5.71773e-20)
(-0.0496649 0.0282303 -3.51236e-20)
(-0.0382348 0.0273089 1.27814e-20)
(-0.025577 0.026273 -1.34782e-20)
(-0.0116572 0.0250941 4.22532e-20)
(0.00355825 0.0237418 -6.33806e-20)
(0.0201012 0.0221851 2.74483e-20)
(0.0380034 0.0203918 -2.46524e-20)
(0.0572875 0.0183316 -3.20718e-20)
(0.0779922 0.0159696 3.40449e-21)
(0.100095 0.0132959 1.91879e-20)
(0.123747 0.0102345 -3.94075e-20)
(0.148556 0.00691074 1.44452e-20)
(0.175928 0.003008 -2.28727e-20)
(0.201271 -0.00109275 -1.5539e-20)
(0.238713 -0.00472061 -3.96069e-20)
(-0.0914324 0.0382966 -3.41107e-20)
(-0.0890174 0.0371925 -6.20109e-20)
(-0.0855142 0.0361595 4.02178e-20)
(-0.0809089 0.0351848 -2.79157e-20)
(-0.075183 0.0342543 -1.1742e-20)
(-0.0683141 0.0333523 -1.88794e-20)
(-0.0602764 0.0324621 1.00417e-19)
(-0.0510414 0.0315656 1.01473e-20)
(-0.0405783 0.0306429 4.02734e-20)
(-0.0288549 0.0296727 1.41101e-20)
(-0.0158379 0.0286317 -2.141e-21)
(-0.00149403 0.0274948 2.19856e-20)
(0.0142098 0.0262352 5.27333e-20)
(0.0313054 0.0248243 -7.97486e-21)
(0.0498227 0.0232322 4.42273e-20)
(0.0697882 0.0214282 2.5728e-20)
(0.0912285 0.0193803 -1.24969e-20)
(0.114153 0.0170605 1.75227e-20)
(0.138608 0.0144295 -1.34703e-21)
(0.164507 0.0114888 -2.25489e-20)
(0.192134 0.00813514 4.21791e-21)
(0.220661 0.00454245 -6.76361e-22)
(0.252525 0.000314827 6.36813e-20)
(0.28065 -0.0041558 -5.35657e-20)
(0.324075 -0.00854151 8.79802e-20)
(-0.0786124 0.0402123 8.25449e-20)
(-0.0744422 0.0389307 6.70504e-21)
(-0.0690654 0.0377187 2.87039e-21)
(-0.0624641 0.0365628 -2.53032e-20)
(-0.0546162 0.0354478 1.21293e-20)
(-0.0454963 0.0343573 -3.58689e-20)
(-0.0350763 0.0332737 -6.13819e-20)
(-0.0233257 0.0321782 -6.05063e-21)
(-0.0102127 0.0310506 3.3315e-21)
(0.00429515 0.029869 -1.05684e-20)
(0.0202304 0.0286102 1.63317e-20)
(0.0376249 0.0272491 -5.17618e-20)
(0.056509 0.025759 -4.20296e-20)
(0.0769104 0.0241122 3.51913e-21)
(0.0988543 0.0222792 -1.67222e-20)
(0.122359 0.0202305 1.57587e-20)
(0.147447 0.0179349 -2.47515e-20)
(0.174105 0.015367 -1.66682e-20)
(0.2024 0.0124849 -2.81572e-20)
(0.232134 0.00930086 2.54134e-20)
(0.263831 0.00569458 4.2642e-20)
(0.295969 0.00185509 7.79666e-20)
(0.332527 -0.00257465 -2.03811e-20)
(0.363063 -0.00736125 2.98005e-20)
(0.412757 -0.012245 -6.6966e-20)
(-0.0648701 0.041823 -8.88718e-20)
(-0.0588245 0.0403541 -4.04385e-20)
(-0.0514486 0.0389533 6.87745e-20)
(-0.0427206 0.0376063 4.51463e-20)
(-0.0326154 0.0362971 5.08884e-20)
(-0.0211048 0.035009 3.2984e-20)
(-0.00815855 0.0337237 5.94659e-20)
(0.00625486 0.0324222 1.88827e-20)
(0.0221676 0.031084 -1.78498e-20)
(0.0396118 0.0296873 1.54667e-20)
(0.0586182 0.0282091 6.36827e-20)
(0.0792159 0.0266248 1.81118e-20)
(0.101431 0.0249086 7.83878e-20)
(0.125286 0.0230334 -5.5274e-20)
(0.150798 0.0209711 -3.24602e-20)
(0.177974 0.0186939 -2.67582e-20)
(0.206829 0.0161717 2.27581e-21)
(0.237319 0.0133814 8.81103e-20)
(0.269544 0.0102831 -8.28414e-21)
(0.303131 0.00688753 -8.01041e-22)
(0.338972 0.00309666 -7.21624e-20)
(0.374553 -0.000976911 -6.91989e-20)
(0.415913 -0.00546583 -5.77446e-20)
(0.448435 -0.0105359 2.942e-22)
(0.504448 -0.0156253 3.04394e-20)
(-0.0501892 0.0431223 5.07636e-20)
(-0.0421419 0.0414595 1.23646e-19)
(-0.0326336 0.0398636 -1.35179e-19)
(-0.0216391 0.0383199 -5.81965e-20)
(-0.00912999 0.0368121 -6.27032e-20)
(0.00492422 0.0353232 -4.59016e-20)
(0.0205554 0.0338348 -1.36181e-20)
(0.0377957 0.0323278 3.2447e-20)
(0.0566772 0.0307821 -3.72938e-20)
(0.0772301 0.0291763 7.83773e-21)
(0.0994824 0.027488 -6.8167e-21)
(0.123458 0.0256935 1.5399e-20)
(0.149178 0.0237681 -4.54441e-20)
(0.176653 0.0216861 3.85762e-20)
(0.205891 0.0194211 3.2974e-20)
(0.23688 0.0169466 -2.78301e-20)
(0.269627 0.0142358 1.98273e-20)
(0.304034 0.0112639 -5.80316e-20)
(0.340255 0.00800538 2.40734e-20)
(0.377663 0.00443834 -2.29078e-20)
(0.41765 0.000561633 -5.97342e-21)
(0.45643 -0.00373368 7.26484e-20)
(0.502495 -0.00812173 -5.09504e-20)
(0.536533 -0.0134567 5.40681e-22)
(0.598501 -0.0184577 4.71123e-20)
(-0.024349 0.042248 -5.74028e-20)
(-0.0125629 0.0404554 6.31018e-20)
(0.000852508 0.0387148 9.98639e-20)
(0.0159287 0.0370102 3.21972e-20)
(0.0326982 0.0353244 6.47116e-20)
(0.0511941 0.0336396 2.01444e-20)
(0.0714486 0.0319371 1.70296e-20)
(0.0934919 0.0301973 8.48079e-20)
(0.117351 0.0283998 2.67546e-20)
(0.143049 0.0265231 -5.26618e-20)
(0.170601 0.0245449 3.5815e-20)
(0.200016 0.0224418 -3.03204e-20)
(0.231291 0.0201899 -3.48792e-20)
(0.264416 0.0177647 -6.84524e-21)
(0.299353 0.0151406 7.01686e-20)
(0.336088 0.0122967 -5.25987e-22)
(0.374452 0.00919878 -1.56728e-20)
(0.414662 0.00585669 -1.08539e-20)
(0.45577 0.00216722 9.25002e-20)
(0.499744 -0.00167494 -3.07347e-20)
(0.54138 -0.00616768 -5.68429e-20)
(0.59172 -0.0102943 -5.8976e-20)
(0.626771 -0.0158732 7.92271e-20)
(0.693752 -0.020518 4.58786e-20)
(-0.00537558 0.042726 -1.08398e-19)
(0.0088508 0.0407404 -8.20491e-21)
(0.0248609 0.0388093 -6.56557e-20)
(0.0426889 0.0369169 5.96062e-20)
(0.0623692 0.0350469 -3.67382e-20)
(0.083935 0.033182 -3.81328e-20)
(0.107417 0.0313044 -9.2256e-20)
(0.132841 0.0293957 -7.91287e-20)
(0.160228 0.0274366 -7.60416e-21)
(0.189591 0.025407 -1.44786e-20)
(0.22093 0.0232862 -4.62295e-21)
(0.254238 0.0210525 2.29922e-20)
(0.289486 0.0186832 6.64543e-21)
(0.326635 0.0161565 -6.85685e-20)
(0.365606 0.0134459 -8.04659e-20)
(0.406357 0.0105408 2.64385e-20)
(0.44862 0.00738527 3.19357e-20)
(0.492671 0.0040513 -1.25665e-20)
(0.537213 0.000299467 -2.60093e-20)
(0.584757 -0.00338635 8.88028e-20)
(0.628773 -0.00802778 3.9031e-20)
(0.682508 -0.01176 2.51295e-20)
(0.718045 -0.0175443 2.11904e-21)
(0.788417 -0.0216187 -6.10648e-20)
(0.0148764 0.0429054 3.76669e-20)
(0.0317266 0.0407373 6.95277e-20)
(0.0505283 0.0386295 -4.54449e-20)
(0.0713182 0.0365672 -1.01489e-20)
(0.0941312 0.0345351 -3.4962e-20)
(0.118998 0.0325172 -3.76285e-20)
(0.145946 0.030497 5.12656e-20)
(0.174992 0.0284575 6.72553e-20)
(0.206145 0.0263809 1.33308e-20)
(0.239399 0.0242487 3.09325e-20)
(0.274733 0.0220414 -2.60085e-20)
(0.312108 0.0197389 -3.95707e-20)
(0.351459 0.0173196 1.60215e-20)
(0.392702 0.0147644 1.47601e-19)
(0.435699 0.0120435 3.52049e-20)
(0.480361 0.00916043 2.13175e-20)
(0.526309 0.00602551 -8.01183e-20)
(0.573839 0.0027944 6.52445e-20)
(0.621347 -0.000946791 -1.59634e-20)
(0.67171 -0.00437813 -8.31999e-20)
(0.717458 -0.00908949 -1.11681e-20)
(0.773218 -0.0123505 -3.30198e-20)
(0.808674 -0.0182786 -6.94484e-20)
(0.880165 -0.0216497 -1.77168e-20)
(0.0365335 0.0428047 2.94587e-20)
(0.0562155 0.0404723 -2.60977e-22)
(0.078032 0.0382104 7.84473e-21)
(0.102021 0.0360059 -2.6207e-20)
(0.128214 0.033845 2.82455e-20)
(0.156638 0.0317134 3.68114e-20)
(0.187308 0.0295961 -2.42487e-20)
(0.220227 0.0274777 -6.35322e-20)
(0.255382 0.0253419 2.00229e-20)
(0.292738 0.0231714 -5.12426e-20)
(0.332238 0.0209478 1.23849e-20)
(0.373796 0.0186519 -5.65033e-20)
(0.417291 0.0162623 4.49901e-20)
(0.462578 0.0137618 -1.02424e-19)
(0.509439 0.0111144 3.75517e-20)
(0.557713 0.00834031 -1.92887e-20)
(0.606911 0.00530825 4.16754e-20)
(0.657283 0.00226254 -2.26365e-20)
(0.707038 -0.0013856 -4.55216e-20)
(0.759118 -0.00450837 4.63047e-20)
(0.805735 -0.00918891 9.23673e-20)
(0.861736 -0.0119748 5.70606e-20)
(0.896475 -0.0179678 1.18837e-20)
(0.966366 -0.0206 9.71913e-21)
(0.0597514 0.04245 -3.87565e-20)
(0.0824994 0.0399802 -4.12865e-20)
(0.10758 0.0375969 4.35172e-20)
(0.135029 0.0352891 6.30408e-20)
(0.164872 0.0330449 7.70243e-20)
(0.197122 0.0308518 -1.52103e-22)
(0.231777 0.0286965 -5.56379e-20)
(0.268813 0.026565 5.3445e-20)
(0.30818 0.0244418 1.49011e-21)
(0.3498 0.0223104 -7.39763e-21)
(0.39356 0.0201524 5.41844e-20)
(0.439308 0.0179483 5.4686e-20)
(0.486848 0.0156748 -3.94223e-20)
(0.535948 0.0133156 -1.41962e-20)
(0.586298 0.010826 1.50179e-20)
(0.637638 0.00824071 -8.03857e-21)
(0.689381 0.00538881 4.07362e-20)
(0.741661 0.00258505 7.01764e-20)
(0.792662 -0.000891056 6.66788e-20)
(0.845061 -0.00370346 -6.67645e-20)
(0.891455 -0.00825301 -9.00002e-20)
(0.945694 -0.0106328 -2.42832e-20)
(0.978984 -0.0166077 -1.94621e-21)
(1.04445 -0.0185757 -2.58353e-21)
(0.0847131 0.0418757 1.16195e-19)
(0.110787 0.0393056 5.46628e-20)
(0.139406 0.0368449 3.95426e-20)
(0.170596 0.034485 -1.23492e-20)
(0.204369 0.0322159 -3.54478e-20)
(0.240716 0.0300269 -9.93834e-21)
(0.279602 0.0279062 2.41043e-20)
(0.32096 0.02584 4.59885e-20)
(0.364688 0.0238132 -7.20105e-20)
(0.410642 0.0218081 1.43101e-20)
(0.458632 0.0198046 -5.4691e-21)
(0.508417 0.017781 -5.53169e-20)
(0.559705 0.0157098 3.87641e-23)
(0.612159 0.013573 7.05793e-20)
(0.665364 0.0113156 -8.91902e-20)
(0.718944 0.00898016 -2.00032e-20)
(0.772244 0.00636786 -3.9736e-20)
(0.825225 0.0038278 -4.07091e-20)
(0.876209 0.000579319 -3.21674e-20)
(0.927354 -0.00196867 1.32485e-19)
(0.972243 -0.00631657 1.03085e-20)
(1.02276 -0.00841529 -1.29315e-20)
(1.05379 -0.0143044 9.90677e-21)
(1.11233 -0.0157723 -4.25039e-20)
(0.14131 0.0385042 -1.03012e-20)
(0.173757 0.0360223 -3.63772e-20)
(0.208979 0.0336742 4.21723e-21)
(0.246958 0.031452 2.65217e-20)
(0.287649 0.0293459 1.96762e-20)
(0.330967 0.0273442 5.019e-20)
(0.376783 0.0254325 -3.81029e-20)
(0.424917 0.0235935 7.84218e-20)
(0.475136 0.0218065 5.97601e-20)
(0.52715 0.020047 -1.34197e-19)
(0.58061 0.018288 5.97148e-20)
(0.635108 0.0164949 -5.47362e-20)
(0.690191 0.014645 -1.55093e-22)
(0.74534 0.0126727 -2.68759e-20)
(0.800065 0.010619 -7.76229e-21)
(0.853673 0.00827378 4.06666e-21)
(0.905952 0.0059812 1.47749e-20)
(0.955479 0.00297357 -2.25207e-20)
(1.00379 0.000608626 -6.55566e-20)
(1.04581 -0.00351872 -1.05565e-21)
(1.09097 -0.00549006 4.7551e-20)
(1.11891 -0.0112598 -8.41357e-21)
(1.16874 -0.0124415 4.40111e-20)
(0.174308 0.0376432 -9.29595e-20)
(0.210882 0.0352093 -1.68114e-20)
(0.250416 0.0329503 -6.65608e-20)
(0.292852 0.0308591 -2.06789e-20)
(0.338084 0.0289259 3.18766e-20)
(0.385955 0.0271371 1.86241e-20)
(0.436248 0.0254751 -9.0591e-21)
(0.488683 0.0239176 -8.04737e-20)
(0.542913 0.0224377 1.86829e-20)
(0.598527 0.0210029 1.17672e-19)
(0.655051 0.0195777 -4.62083e-20)
(0.711957 0.0181176 6.81728e-20)
(0.768678 0.0165914 2.06997e-20)
(0.824605 0.014924 1.18394e-20)
(0.879158 0.0131469 -1.95709e-20)
(0.931654 0.0110538 1.47687e-21)
(0.981748 0.00895585 2.83934e-20)
(1.02834 0.00615108 -7.29119e-20)
(1.0724 0.00386676 1.93763e-20)
(1.11029 -7.83333e-05 -4.72162e-20)
(1.14895 -0.00207671 4.96596e-20)
(1.1731 -0.0077328 3.19232e-21)
(1.21335 -0.00885151 9.73556e-21)
(0.210022 0.036802 1.42495e-20)
(0.25101 0.0344983 2.95398e-20)
(0.295109 0.0324178 -2.9467e-21)
(0.342193 0.0305528 2.60205e-20)
(0.392076 0.0288906 -8.34496e-20)
(0.4445 0.027413 -1.20222e-19)
(0.499135 0.0260956 2.42129e-21)
(0.555572 0.0249075 -6.46152e-20)
(0.613334 0.0238113 5.51831e-20)
(0.671875 0.0227629 -9.31462e-20)
(0.730593 0.021715 -8.7118e-21)
(0.788849 0.0206109 3.30668e-20)
(0.845984 0.0194083 4.13666e-20)
(0.901332 0.0180247 5.53096e-20)
(0.954278 0.0164784 5.14392e-20)
(1.00419 0.0145777 -4.52189e-20)
(1.05069 0.0125898 2.97057e-20)
(1.09301 0.00990436 6.88845e-20)
(1.13171 0.00759102 -2.33117e-20)
(1.16449 0.00374534 6.89702e-20)
(1.19614 0.00158879 -2.68307e-20)
(1.21602 -0.00399023 -2.40329e-20)
(1.24676 -0.00523503 -2.24323e-20)
(0.248672 0.0360719 -3.38755e-20)
(0.29433 0.0339925 1.91983e-20)
(0.343186 0.0321902 1.02806e-19)
(0.395022 0.0306535 4.5815e-20)
(0.44954 0.0293636 1.21043e-19)
(0.506354 0.0282933 4.4198e-20)
(0.564995 0.0274069 6.28286e-20)
(0.62491 0.0266604 1.56072e-20)
(0.685477 0.0260018 3.82146e-20)
(0.746018 0.0253718 7.25698e-20)
(0.80582 0.0247091 -1.36358e-20)
(0.864159 0.0239437 -1.22096e-19)
(0.920328 0.0230226 8.80273e-20)
(0.973661 0.0218588 -5.65974e-20)
(1.02357 0.0204591 -4.95415e-20)
(1.06955 0.0186534 8.50722e-20)
(1.11126 0.0166695 -9.15716e-20)
(1.14827 0.013992 -3.83782e-20)
(1.18096 0.0115459 -2.76689e-20)
(1.20806 0.00769664 2.54819e-20)
(1.23275 0.0052901 -4.17714e-20)
(1.24825 -0.000263395 -6.32784e-21)
(1.27032 -0.00175144 2.31911e-20)
(0.340963 0.0338034 3.59398e-20)
(0.394676 0.0323854 -2.38612e-19)
(0.451239 0.0312812 5.69712e-21)
(0.51021 0.0304606 -5.11575e-20)
(0.571052 0.0298826 -2.67668e-20)
(0.633137 0.0294951 -1.35192e-20)
(0.695761 0.0292363 -5.61642e-20)
(0.758163 0.0290361 -1.68117e-19)
(0.819554 0.0288182 2.85593e-21)
(0.879144 0.0285062 -1.13833e-20)
(0.936175 0.0280192 -2.04154e-21)
(0.98996 0.0272959 -1.56399e-19)
(1.03989 0.0262504 3.13696e-20)
(1.08551 0.0248845 3.59232e-20)
(1.12644 0.0230542 -6.32654e-20)
(1.16253 0.0209605 5.30007e-21)
(1.19363 0.0181757 6.56618e-20)
(1.22008 0.0155112 -1.75422e-20)
(1.24143 0.0115615 -2.35985e-20)
(1.25972 0.00885919 3.07458e-20)
(1.27105 0.00328035 1.90299e-20)
(1.28577 0.00147553 -9.13004e-20)
(0.390934 0.0340463 -7.57706e-20)
(0.449476 0.0331197 1.78542e-20)
(0.510574 0.0325464 -1.9574e-20)
(0.573618 0.0322793 7.83241e-20)
(0.637901 0.0322576 1.17615e-19)
(0.70263 0.0324081 1.16986e-19)
(0.766959 0.0326474 1.6388e-19)
(0.830017 0.0328856 8.90601e-20)
(0.890944 0.0330296 -9.96987e-20)
(0.948933 0.0329907 5.4204e-20)
(1.00326 0.0326815 6.02381e-20)
(1.05333 0.032039 1.60817e-19)
(1.09868 0.0309859 -4.37931e-20)
(1.13901 0.0295271 -6.18029e-20)
(1.17418 0.0275501 -4.60109e-20)
(1.20423 0.0252419 2.26901e-20)
(1.22928 0.0222524 8.25959e-20)
(1.24974 0.019311 -3.1853e-20)
(1.26568 0.015191 -4.43284e-20)
(1.27843 0.0121927 -5.3467e-20)
(1.28609 0.00653377 1.61326e-20)
(1.2951 0.00450227 5.98268e-20)
(0.444144 0.0348343 2.01232e-20)
(0.507324 0.0344996 -2.08774e-20)
(0.572568 0.0345413 7.33188e-20)
(0.639083 0.0348889 9.78509e-21)
(0.705985 0.0354565 -4.03044e-20)
(0.772334 0.036146 -5.86948e-20)
(0.837171 0.0368511 -9.35067e-20)
(0.899563 0.0374632 7.56084e-20)
(0.958646 0.0378761 -1.12577e-19)
(1.01367 0.0379947 6.41893e-20)
(1.06402 0.037733 3.46628e-21)
(1.10927 0.0370352 -8.64814e-20)
(1.14916 0.035841 2.46889e-20)
(1.18361 0.0341677 9.59638e-21)
(1.21272 0.0319381 3.45581e-20)
(1.23674 0.0293347 4.2168e-20)
(1.25603 0.0260762 -8.19177e-20)
(1.27106 0.0228306 3.7787e-20)
(1.28226 0.0185097 2.85199e-20)
(1.29049 0.0152403 5.52784e-20)
(1.29514 0.00948219 5.84537e-20)
(1.29978 0.00721753 -2.82742e-20)
(0.567778 0.036613 1.49952e-19)
(0.636563 0.0373292 -1.11034e-19)
(0.705719 0.0383199 -5.86004e-20)
(0.774205 0.0394703 -1.36064e-20)
(0.840967 0.0406559 -2.0533e-20)
(0.90499 0.0417496 -7.62773e-20)
(0.965348 0.0426288 -6.23266e-20)
(1.02125 0.0431818 1.44435e-19)
(1.07209 0.0433162 -9.91006e-20)
(1.11744 0.0429579 -1.04146e-19)
(1.15709 0.0420674 9.34966e-20)
(1.19102 0.0406103 1.32659e-21)
(1.21941 0.0386224 -4.74274e-20)
(1.24256 0.0360647 -1.6825e-20)
(1.26095 0.0331189 -2.75346e-20)
(1.27507 0.0295653 7.4418e-20)
(1.28548 0.0260181 -3.72593e-20)
(1.29276 0.0215011 4.47061e-20)
(1.2975 0.0180027 -2.14423e-20)
(1.2998 0.0121549 1.85679e-20)
(1.3014 0.00975531 -5.49039e-20)
(0.630215 0.0395197 -5.46437e-20)
(0.701713 0.0409361 1.08453e-19)
(0.772473 0.0425574 -1.00367e-19)
(0.841335 0.0442388 2.55678e-20)
(0.907192 0.0458325 1.70555e-20)
(0.969048 0.0471962 6.6543e-20)
(1.02607 0.0482023 4.42824e-20)
(1.07763 0.0487441 -1.97548e-21)
(1.12331 0.0487433 8.5441e-20)
(1.16295 0.0481483 1.32161e-19)
(1.1966 0.0469443 3.43205e-21)
(1.22448 0.0451293 3.35269e-20)
(1.247 0.0427601 7.54371e-20)
(1.26466 0.0398363 -5.48814e-20)
(1.27807 0.0365359 4.0446e-20)
(1.2878 0.0326959 -1.15133e-19)
(1.29448 0.0288732 6.65772e-20)
(1.2987 0.0241922 2.47709e-20)
(1.30086 0.0205139 -1.52838e-20)
(1.30146 0.0146073 -4.22432e-20)
(1.301 0.0121399 -4.58152e-20)
(0.693837 0.0432429 -1.21895e-19)
(0.76702 0.0453434 -3.01491e-22)
(0.838182 0.047537 -5.82072e-20)
(0.90611 0.0496525 -1.26122e-19)
(0.969725 0.0515255 -1.02978e-19)
(1.02814 0.0530091 -7.11484e-20)
(1.08069 0.0539823 4.80456e-21)
(1.12699 0.0543565 5.52192e-20)
(1.16689 0.0540781 -5.63345e-21)
(1.2005 0.0531273 -1.05697e-19)
(1.22811 0.0515196 -1.02e-19)
(1.2502 0.0492879 3.77252e-20)
(1.26736 0.0465086 -9.47716e-21)
(1.2802 0.0432167 -1.78896e-20)
(1.28944 0.0395801 2.41075e-20)
(1.29564 0.035488 1.91122e-20)
(1.29944 0.0314303 -2.23177e-20)
(1.30138 0.0266326 -8.86864e-20)
(1.30174 0.0228191 5.81466e-20)
(1.30116 0.0168916 6.38505e-20)
(1.29937 0.0144025 8.66356e-20)
(0.831383 0.0504858 -6.93931e-20)
(0.901649 0.0531481 1.3731e-19)
(0.967321 0.0555607 1.23008e-19)
(1.02744 0.0575541 4.01135e-20)
(1.08131 0.0589904 4.58477e-20)
(1.12853 0.059769 5.43254e-20)
(1.16899 0.0598309 -1.46763e-19)
(1.20283 0.0591572 -6.4055e-21)
(1.23043 0.0577647 -5.31444e-20)
(1.25232 0.0557012 6.9276e-20)
(1.26915 0.0530322 -3.24185e-20)
(1.28164 0.049849 -5.78858e-20)
(1.29047 0.0462162 4.28786e-20)
(1.29635 0.0422832 -5.09721e-20)
(1.29983 0.0379883 3.26788e-20)
(1.30153 0.0337407 -9.13036e-20)
(1.30183 0.0288786 6.98632e-20)
(1.30099 0.0249635 1.60305e-20)
(1.29962 0.0190546 -1.95975e-20)
(1.29704 0.0165827 -2.64649e-20)
(0.893676 0.056254 -1.16952e-19)
(0.961735 0.0592414 5.69192e-21)
(1.02391 0.0617847 -6.80352e-20)
(1.07946 0.0637246 -5.98015e-20)
(1.12795 0.0649466 7.97754e-20)
(1.16929 0.0653838 1.21816e-20)
(1.20367 0.0650161 5.43608e-20)
(1.23151 0.0638644 5.01155e-20)
(1.25344 0.0619834 1.82832e-20)
(1.27016 0.0594501 -5.38383e-20)
(1.28243 0.0563572 -2.18714e-20)
(1.29103 0.0528037 5.20496e-22)
(1.29665 0.0488764 -3.05391e-20)
(1.29996 0.0446979 6.82636e-20)
(1.30145 0.0402539 -1.72391e-20)
(1.30165 0.0358586 2.38809e-20)
(1.30083 0.0309831 4.18389e-20)
(1.29923 0.0269834 -1.20996e-19)
(1.29737 0.0211369 8.80932e-20)
(1.29432 0.0186998 -3.61884e-22)
(0.952821 0.0625024 7.22893e-20)
(1.01744 0.0656423 4.72977e-21)
(1.07506 0.0681359 3.69875e-20)
(1.12521 0.0698501 -6.23657e-20)
(1.16779 0.0707077 8.27176e-20)
(1.20304 0.0706853 -1.81585e-19)
(1.23142 0.0698073 1.1088e-20)
(1.25363 0.0681347 4.1701e-20)
(1.27044 0.0657561 1.65346e-20)
(1.28268 0.0627722 -5.26014e-20)
(1.29117 0.0592938 1.98375e-20)
(1.29667 0.0554211 6.69199e-20)
(1.29982 0.0512543 2.88904e-20)
(1.30123 0.0468839 -5.62848e-20)
(1.3013 0.0423415 3.19171e-20)
(1.30048 0.0378333 1.59276e-21)
(1.29892 0.0329893 -2.17424e-20)
(1.29688 0.0289042 3.61745e-22)
(1.29471 0.0231717 -2.44264e-20)
(1.29141 0.0207519 -1.32438e-19)
(1.06799 0.0721675 -1.47186e-20)
(1.12023 0.0744333 -8.52275e-21)
(1.16446 0.0757673 9.60574e-20)
(1.20093 0.0761403 -4.48995e-20)
(1.23017 0.0755778 1.06908e-19)
(1.25292 0.0741485 -4.98471e-20)
(1.27004 0.0719495 2.23495e-20)
(1.28243 0.0690962 -1.06397e-21)
(1.29095 0.0657047 5.08592e-20)
(1.29641 0.0618948 3.51188e-20)
(1.29951 0.0577615 1.73444e-20)
(1.30084 0.0534106 7.89133e-21)
(1.30089 0.0488986 4.14044e-20)
(1.29999 0.0442998 -6.71506e-20)
(1.2985 0.0397051 5.87597e-20)
(1.29647 0.0349291 -7.54055e-20)
(1.29421 0.0307412 4.25997e-20)
(1.29182 0.0251827 -1.38344e-21)
(1.28844 0.0227246 7.70242e-20)
(1.11286 0.0786414 2.14671e-20)
(1.15918 0.0805194 6.90512e-20)
(1.19728 0.0813491 5.62931e-20)
(1.22772 0.0811552 -8.70297e-20)
(1.25131 0.0800118 -8.33349e-20)
(1.26898 0.0780274 6.23571e-20)
(1.28169 0.0753277 -1.42639e-19)
(1.29039 0.0720453 2.0935e-20)
(1.29592 0.0683033 -6.65828e-20)
(1.29904 0.0642217 -1.13661e-20)
(1.30036 0.0598865 -6.29715e-20)
(1.30038 0.0554012 -7.68751e-20)
(1.29949 0.0507917 3.27909e-20)
(1.29794 0.0461676 1.21465e-19)
(1.29603 0.041506 4.70129e-20)
(1.29372 0.0368241 6.50317e-20)
(1.29135 0.0325009 1.91025e-20)
(1.28882 0.0271853 3.98025e-20)
(1.28548 0.0245861 -8.88549e-21)
(1.19198 0.0862711 1.20194e-21)
(1.22401 0.0865103 -1.07497e-19)
(1.24876 0.085707 2.97927e-20)
(1.26724 0.083979 -4.60965e-20)
(1.28048 0.0814662 3.62067e-20)
(1.28949 0.0783133 1.07664e-19)
(1.29521 0.0746606 -3.87985e-20)
(1.29842 0.0706305 5.16464e-20)
(1.29979 0.066336 4.78252e-20)
(1.29982 0.061852 1.7459e-20)
(1.29893 0.0572736 1.30488e-21)
(1.29741 0.0526031 2.98662e-20)
(1.29545 0.0479733 -7.73787e-20)
(1.29327 0.0432623 -2.94883e-20)
(1.2908 0.0386872 -6.75113e-20)
(1.2884 0.0341876 -5.67501e-20)
(1.28577 0.0291892 2.39828e-20)
(1.28259 0.0262813 5.56864e-20)
(1.21892 0.0916051 3.71144e-20)
(1.2452 0.0912075 2.32233e-20)
(1.26476 0.089789 9.01793e-20)
(1.27876 0.087503 -1.49358e-20)
(1.28827 0.0845101 -3.68011e-20)
(1.29429 0.0809642 -1.28843e-19)
(1.29768 0.0770047 3.77326e-20)
(1.29914 0.072747 -1.41666e-20)
(1.29922 0.0682925 -9.73202e-21)