/*--------------------------------*- C++ -*----------------------------------*\
  =========                 |
  \\      /  F ield         | OpenFOAM: The Open Source CFD Toolbox
   \\    /   O peration     | Website:  https://openfoam.org
    \\  /    A nd           | Version:  7
     \\/     M anipulation  |
\*---------------------------------------------------------------------------*/
FoamFile
{
    version     2.0;
    format      ascii;
    class       volScalarField;
    location    "40";
    object      p;
}
// * * * * * * * * * * * * * * * * * * * * * * * * * * * * * * * * * * * * * //

dimensions      [0 2 -2 0 0 0 0];

internalField   nonuniform List<scalar> 
2625
(
-0.0647306
-0.0622893
-0.059921
-0.0576244
-0.0553978
-0.0532397
-0.0511484
-0.0491222
-0.0471595
-0.0452585
-0.0434174
-0.0416346
-0.0399082
-0.0382365
-0.0366178
-0.0350503
-0.0335323
-0.0320621
-0.030638
-0.0292582
-0.0279213
-0.0266254
-0.0253692
-0.024151
-0.0229693
-0.0218227
-0.0207096
-0.0196287
-0.0185787
-0.0175582
-0.0165658
-0.0156005
-0.0146609
-0.013746
-0.0128545
-0.0119856
-0.0111374
-0.0103107
-0.00950094
-0.00871382
-0.00793574
-0.00718904
-0.0064299
-0.00573493
-0.00496315
-0.00436285
-0.00349089
-0.00312108
-0.00190046
-0.00216216
0.000106265
-0.00192421
0.00332197
-0.00360751
0.00983214
-0.0647452
-0.0623033
-0.0599345
-0.0576373
-0.0554103
-0.0532517
-0.0511599
-0.0491333
-0.0471701
-0.0452686
-0.0434272
-0.0416439
-0.0399172
-0.0382451
-0.036626
-0.0350582
-0.0335398
-0.0320692
-0.0306448
-0.0292647
-0.0279275
-0.0266314
-0.0253748
-0.0241564
-0.0229744
-0.0218275
-0.0207142
-0.0196331
-0.0185828
-0.0175621
-0.0165695
-0.015604
-0.0146642
-0.0137492
-0.0128574
-0.0119884
-0.01114
-0.0103132
-0.00950325
-0.00871599
-0.00793778
-0.00719095
-0.00643169
-0.00573661
-0.00496473
-0.00436431
-0.00349234
-0.00312234
-0.00190195
-0.0021631
0.000104299
-0.00192433
0.00331819
-0.00360511
0.00982261
-0.0647742
-0.0623312
-0.0599614
-0.0576633
-0.0554352
-0.0532756
-0.0511829
-0.0491554
-0.0471913
-0.045289
-0.0434467
-0.0416626
-0.039935
-0.0382622
-0.0366424
-0.0350738
-0.0335548
-0.0320835
-0.0306584
-0.0292777
-0.0279398
-0.0266431
-0.0253861
-0.0241671
-0.0229846
-0.0218372
-0.0207234
-0.0196418
-0.0185911
-0.0175699
-0.0165769
-0.015611
-0.0146709
-0.0137554
-0.0128633
-0.0119939
-0.0111452
-0.0103181
-0.00950786
-0.00872032
-0.00794184
-0.00719475
-0.00643526
-0.00573995
-0.0049679
-0.00436724
-0.00349525
-0.00312485
-0.00190491
-0.00216497
0.00010037
-0.00192458
0.00331065
-0.00360032
0.00980358
-0.0648177
-0.0623732
-0.0600018
-0.0577021
-0.0554725
-0.0533115
-0.0512174
-0.0491885
-0.0472231
-0.0453194
-0.0434759
-0.0416906
-0.0399618
-0.0382879
-0.0366669
-0.0350973
-0.0335772
-0.0321049
-0.0306788
-0.0292972
-0.0279584
-0.0266608
-0.0254029
-0.0241831
-0.0229998
-0.0218516
-0.0207371
-0.0196548
-0.0186034
-0.0175816
-0.016588
-0.0156215
-0.0146808
-0.0137648
-0.0128721
-0.0120022
-0.0111531
-0.0103254
-0.00951477
-0.00872681
-0.00794792
-0.00720046
-0.00644061
-0.00574497
-0.00497265
-0.00437164
-0.0034996
-0.00312862
-0.00190935
-0.00216777
9.44815e-05
-0.00192494
0.00329934
-0.00359314
0.00977509
-0.0648756
-0.062429
-0.0600555
-0.0577538
-0.0555223
-0.0533593
-0.0512633
-0.0492325
-0.0472654
-0.04536
-0.0435148
-0.0417278
-0.0399975
-0.038322
-0.0366996
-0.0351285
-0.033607
-0.0321334
-0.030706
-0.0293231
-0.0279831
-0.0266844
-0.0254253
-0.0242044
-0.0230201
-0.0218709
-0.0207554
-0.0196722
-0.0186199
-0.0175972
-0.0166028
-0.0156355
-0.014694
-0.0137772
-0.0128839
-0.0120133
-0.0111635
-0.0103352
-0.00952397
-0.00873545
-0.00795603
-0.00720807
-0.00644775
-0.00575165
-0.00497897
-0.00437749
-0.0035054
-0.00313363
-0.00191528
-0.0021715
8.66386e-05
-0.00192542
0.0032843
-0.00358359
0.0097372
-0.064948
-0.0624986
-0.0601226
-0.0578184
-0.0555844
-0.053419
-0.0513206
-0.0492876
-0.0473182
-0.0454107
-0.0435633
-0.0417744
-0.0400421
-0.0383647
-0.0367404
-0.0351675
-0.0336443
-0.032169
-0.0307399
-0.0293555
-0.028014
-0.0267138
-0.0254533
-0.024231
-0.0230454
-0.021895
-0.0207783
-0.0196939
-0.0186405
-0.0176167
-0.0166212
-0.0156529
-0.0147104
-0.0137928
-0.0128985
-0.0120271
-0.0111765
-0.0103475
-0.00953547
-0.00874624
-0.00796615
-0.00721756
-0.00645666
-0.00575999
-0.00498687
-0.0043848
-0.00351264
-0.0031399
-0.00192267
-0.00217616
7.68484e-05
-0.00192603
0.00326555
-0.0035717
0.00969001
-0.0650346
-0.0625821
-0.060203
-0.0578958
-0.0556588
-0.0534906
-0.0513894
-0.0493536
-0.0473816
-0.0454715
-0.0436216
-0.0418302
-0.0400955
-0.0384158
-0.0367893
-0.0352142
-0.0336889
-0.0322116
-0.0307807
-0.0293943
-0.028051
-0.0267491
-0.0254869
-0.024263
-0.0230758
-0.0219238
-0.0208057
-0.0197199
-0.0186651
-0.01764
-0.0166433
-0.0156738
-0.0147302
-0.0138114
-0.0129161
-0.0120437
-0.0111921
-0.0103621
-0.00954925
-0.00875919
-0.00797829
-0.00722895
-0.00646734
-0.00576999
-0.00499635
-0.00439357
-0.00352132
-0.00314741
-0.00193154
-0.00218174
6.51196e-05
-0.00192676
0.00324311
-0.00355747
0.00963364
-0.0651356
-0.0626795
-0.0602967
-0.0579859
-0.0557456
-0.053574
-0.0514695
-0.0494306
-0.0474554
-0.0455423
-0.0436895
-0.0418952
-0.0401578
-0.0384754
-0.0368463
-0.0352687
-0.033741
-0.0322614
-0.0308281
-0.0294396
-0.0280942
-0.0267902
-0.025526
-0.0243002
-0.0231112
-0.0219575
-0.0208376
-0.0197502
-0.0186938
-0.0176673
-0.0166691
-0.0156982
-0.0147532
-0.0138332
-0.0129366
-0.012063
-0.0112103
-0.0103792
-0.00956531
-0.00877427
-0.00799244
-0.00724222
-0.0064798
-0.00578165
-0.00500739
-0.00440379
-0.00353144
-0.00315616
-0.00194187
-0.00218825
5.14626e-05
-0.00192762
0.00321702
-0.00354096
0.0095682
-0.0652508
-0.0627905
-0.0604037
-0.0580889
-0.0558446
-0.0536692
-0.051561
-0.0495184
-0.0475397
-0.0456231
-0.043767
-0.0419695
-0.0402289
-0.0385435
-0.0369114
-0.035331
-0.0338005
-0.0323181
-0.0308823
-0.0294913
-0.0281434
-0.0268371
-0.0255707
-0.0243427
-0.0231516
-0.0219959
-0.0208741
-0.0197848
-0.0187267
-0.0176983
-0.0166985
-0.015726
-0.0147795
-0.013858
-0.01296
-0.0120851
-0.011231
-0.0103988
-0.00958365
-0.00879149
-0.00800858
-0.00725737
-0.00649401
-0.00579496
-0.00502
-0.00441545
-0.003543
-0.00316615
-0.00195367
-0.00219567
3.58894e-05
-0.0019286
0.00318732
-0.00352218
0.00949387
-0.0653803
-0.0629152
-0.0605238
-0.0582045
-0.0559558
-0.0537761
-0.0516638
-0.0496171
-0.0476344
-0.045714
-0.0438541
-0.0420529
-0.0403088
-0.0386199
-0.0369846
-0.0354009
-0.0338673
-0.0323819
-0.0309432
-0.0295494
-0.0281988
-0.0268898
-0.0256209
-0.0243905
-0.0231971
-0.0220391
-0.0209151
-0.0198237
-0.0187635
-0.0177332
-0.0167316
-0.0157573
-0.014809
-0.0138858
-0.0129863
-0.0121098
-0.0112543
-0.0104207
-0.00960424
-0.00881083
-0.00802673
-0.00727439
-0.00650998
-0.00580992
-0.00503416
-0.00442855
-0.00355599
-0.00317737
-0.00196692
-0.002204
1.84138e-05
-0.00192972
0.00315407
-0.00350119
0.0094108
-0.0655238
-0.0630536
-0.0606571
-0.0583328
-0.0560793
-0.0538948
-0.0517778
-0.0497266
-0.0477395
-0.0458148
-0.0439507
-0.0421455
-0.0403975
-0.0387048
-0.0370657
-0.0354785
-0.0339414
-0.0324528
-0.0310108
-0.0296138
-0.0282602
-0.0269484
-0.0256767
-0.0244435
-0.0232475
-0.0220869
-0.0209605
-0.0198668
-0.0188044
-0.017772
-0.0167682
-0.0157919
-0.0148418
-0.0139168
-0.0130155
-0.0121373
-0.0112802
-0.010445
-0.0096271
-0.00883229
-0.00804686
-0.00729327
-0.00652771
-0.00582651
-0.00504988
-0.00444309
-0.0035704
-0.00318981
-0.00198162
-0.00221325
-9.48954e-07
-0.00193097
0.00311732
-0.00347801
0.00931919
-0.0656814
-0.0632055
-0.0608034
-0.0584737
-0.0562148
-0.0540251
-0.051903
-0.0498469
-0.047855
-0.0459255
-0.0440569
-0.0422473
-0.0404949
-0.038798
-0.0371549
-0.0355638
-0.0340229
-0.0325305
-0.031085
-0.0296846
-0.0283277
-0.0270127
-0.0257379
-0.0245018
-0.0233028
-0.0221395
-0.0210105
-0.0199142
-0.0188493
-0.0178145
-0.0168085
-0.01583
-0.0148778
-0.0139507
-0.0130475
-0.0121675
-0.0113086
-0.0104717
-0.0096522
-0.00885586
-0.00806897
-0.00731401
-0.00654717
-0.00584473
-0.00506715
-0.00445905
-0.00358623
-0.00320348
-0.00199776
-0.00222339
-2.21819e-05
-0.00193235
0.00307711
-0.00345271
0.00921926
-0.0658529
-0.0633708
-0.0609627
-0.0586271
-0.0563624
-0.054167
-0.0520394
-0.0499779
-0.0479807
-0.0460462
-0.0441725
-0.0423581
-0.040601
-0.0388996
-0.0372521
-0.0356566
-0.0341116
-0.0326153
-0.0311659
-0.0297617
-0.0284012
-0.0270827
-0.0258045
-0.0245652
-0.0233631
-0.0221968
-0.0210649
-0.0199658
-0.0188982
-0.0178609
-0.0168524
-0.0158715
-0.014917
-0.0139877
-0.0130824
-0.0122004
-0.0113395
-0.0105008
-0.00967953
-0.00888153
-0.00809305
-0.0073366
-0.00656838
-0.00586458
-0.00508596
-0.00447644
-0.00360348
-0.00321836
-0.00201534
-0.00223444
-4.52668e-05
-0.00193387
0.00303353
-0.00342533
0.00911122
-0.0660382
-0.0635495
-0.0611349
-0.0587929
-0.0565219
-0.0543205
-0.0521869
-0.0501195
-0.0481167
-0.0461766
-0.0442976
-0.0424779
-0.0407158
-0.0390094
-0.0373571
-0.0357571
-0.0342076
-0.0327069
-0.0312533
-0.0298451
-0.0284807
-0.0271584
-0.0258766
-0.0246338
-0.0234283
-0.0222588
-0.0211237
-0.0200216
-0.0189511
-0.017911
-0.0168998
-0.0159163
-0.0149593
-0.0140277
-0.0131201
-0.0122359
-0.011373
-0.0105323
-0.00970908
-0.00890928
-0.00811908
-0.00736102
-0.0065913
-0.00588604
-0.00510631
-0.00449524
-0.00362213
-0.00323445
-0.00203435
-0.00224637
-7.01837e-05
-0.00193554
0.00298662
-0.00339593
0.00899533
-0.0662373
-0.0637415
-0.0613199
-0.0589711
-0.0566934
-0.0544854
-0.0523454
-0.0502718
-0.0482628
-0.0463168
-0.0444321
-0.0426068
-0.0408392
-0.0391275
-0.0374701
-0.0358651
-0.0343108
-0.0328054
-0.0313473
-0.0299348
-0.0285662
-0.0272398
-0.0259541
-0.0247075
-0.0234984
-0.0223254
-0.0211869
-0.0200816
-0.019008
-0.0179648
-0.0169507
-0.0159645
-0.0150048
-0.0140707
-0.0131606
-0.0122741
-0.0114089
-0.0105661
-0.00974084
-0.00893911
-0.00814707
-0.00738727
-0.00661595
-0.00590911
-0.00512818
-0.00451545
-0.00364219
-0.00325173
-0.00205478
-0.00225919
-9.69113e-05
-0.00193735
0.00293648
-0.00336457
0.00887185
-0.06645
-0.0639467
-0.0615176
-0.0591615
-0.0568767
-0.0546617
-0.0525149
-0.0504346
-0.0484191
-0.0464668
-0.0445758
-0.0427445
-0.0409711
-0.0392538
-0.0375909
-0.0359806
-0.0344211
-0.0329108
-0.0314479
-0.0300307
-0.0286576
-0.0273269
-0.026037
-0.0247863
-0.0235733
-0.0223966
-0.0212545
-0.0201457
-0.0190688
-0.0180224
-0.0170052
-0.016016
-0.0150535
-0.0141166
-0.013204
-0.0123149
-0.0114474
-0.0106022
-0.0097748
-0.008971
-0.00817699
-0.00741533
-0.0066423
-0.00593377
-0.00515156
-0.00453705
-0.00366363
-0.0032702
-0.00207661
-0.00227289
-0.000125427
-0.00193931
0.00288317
-0.00333132
0.00874105
-0.0666762
-0.0641649
-0.061728
-0.0593641
-0.0570717
-0.0548493
-0.0526952
-0.0506078
-0.0485854
-0.0466263
-0.0447288
-0.0428912
-0.0411115
-0.0393882
-0.0377195
-0.0361035
-0.0345385
-0.0330229
-0.0315549
-0.0301327
-0.0287548
-0.0274195
-0.0261252
-0.0248702
-0.0236531
-0.0224723
-0.0213264
-0.0202139
-0.0191334
-0.0180836
-0.0170632
-0.0160709
-0.0151053
-0.0141655
-0.0132501
-0.0123583
-0.0114882
-0.0106407
-0.00981093
-0.00900493
-0.00820882
-0.0074452
-0.00667035
-0.00596002
-0.00517646
-0.00456004
-0.00368646
-0.00328986
-0.00209984
-0.00228746
-0.000155707
-0.00194144
0.00282677
-0.00329623
0.00860322
-0.0669158
-0.064396
-0.0619508
-0.0595787
-0.0572783
-0.0550481
-0.0528863
-0.0507914
-0.0487617
-0.0467955
-0.044891
-0.0430466
-0.0412604
-0.0395307
-0.0378558
-0.0362338
-0.034663
-0.0331418
-0.0316683
-0.0302409
-0.028858
-0.0275177
-0.0262187
-0.0249592
-0.0237377
-0.0225527
-0.0214027
-0.0202862
-0.019202
-0.0181486
-0.0171246
-0.016129
-0.0151602
-0.0142173
-0.0132989
-0.0124044
-0.0115316
-0.0106814
-0.00984922
-0.00904089
-0.00824257
-0.00747685
-0.00670008
-0.00598784
-0.00520285
-0.00458441
-0.00371067
-0.00331069
-0.00212446
-0.00230289
-0.000187725
-0.00194372
0.00276737
-0.00325938
0.00845866
-0.0671686
-0.0646399
-0.0621859
-0.0598053
-0.0574965
-0.0552579
-0.0530881
-0.0509853
-0.0489479
-0.0469742
-0.0450624
-0.0432108
-0.0414177
-0.0396813
-0.0379998
-0.0363715
-0.0347946
-0.0332674
-0.0317882
-0.0303552
-0.0289669
-0.0276215
-0.0263174
-0.0250531
-0.023827
-0.0226375
-0.0214832
-0.0203626
-0.0192744
-0.0182171
-0.0171895
-0.0161903
-0.0152182
-0.014272
-0.0133505
-0.012453
-0.0115773
-0.0107245
-0.00988966
-0.00907887
-0.00827821
-0.00751028
-0.00673148
-0.00601723
-0.00523074
-0.00461014
-0.00373625
-0.00333268
-0.00215046
-0.00231918
-0.000221457
-0.00194618
0.00270506
-0.00322085
0.00830767
-0.0648965
-0.0624334
-0.0600437
-0.0577261
-0.0554788
-0.0533005
-0.0511894
-0.0491439
-0.0471622
-0.0452427
-0.0433837
-0.0415832
-0.0398397
-0.0381514
-0.0365164
-0.0349331
-0.0333996
-0.0319143
-0.0304756
-0.0290816
-0.0277307
-0.0264214
-0.025152
-0.023921
-0.0227268
-0.0215679
-0.020443
-0.0193506
-0.0182893
-0.0172578
-0.0162549
-0.0152792
-0.0143296
-0.0134048
-0.0125042
-0.0116255
-0.0107698
-0.00993222
-0.00911885
-0.00831572
-0.00754548
-0.00676454
-0.00604816
-0.0052601
-0.00463723
-0.00376318
-0.00335582
-0.00217782
-0.00233632
-0.000256872
-0.00194881
0.00263992
-0.0031807
0.00815059
-0.0651656
-0.0626929
-0.0602938
-0.0579669
-0.0557106
-0.0535234
-0.0514036
-0.0493496
-0.0473597
-0.0454321
-0.0435651
-0.0417571
-0.0400061
-0.0383105
-0.0366686
-0.0350784
-0.0335384
-0.0320468
-0.0306019
-0.029202
-0.0278454
-0.0265305
-0.0252558
-0.0240196
-0.0228205
-0.0216569
-0.0205274
-0.0194306
-0.018365
-0.0173295
-0.0163226
-0.0153432
-0.0143901
-0.0134618
-0.0125578
-0.011676
-0.0108173
-0.00997689
-0.0091608
-0.0083551
-0.00758241
-0.00679924
-0.00608063
-0.00529092
-0.00466567
-0.00379146
-0.0033801
-0.00220653
-0.0023543
-0.000293945
-0.00195162
0.00257205
-0.00313902
0.00798773
-0.065447
-0.0629644
-0.0605555
-0.0582189
-0.0559532
-0.0537567
-0.0516278
-0.0495649
-0.0475663
-0.0456303
-0.0437551
-0.041939
-0.0401803
-0.0384772
-0.0368279
-0.0352306
-0.0336838
-0.0321855
-0.0307341
-0.029328
-0.0279654
-0.0266448
-0.0253645
-0.0241229
-0.0229186
-0.02175
-0.0206157
-0.0195143
-0.0184443
-0.0174045
-0.0163936
-0.0154102
-0.0144533
-0.0135214
-0.012614
-0.0117289
-0.0108671
-0.0100236
-0.00920471
-0.00839631
-0.00762108
-0.00683558
-0.00611462
-0.0053232
-0.00469543
-0.00382108
-0.00340551
-0.00223659
-0.00237311
-0.000332643
-0.00195463
0.00250155
-0.00309589
0.00781943
-0.0657406
-0.0632476
-0.0608286
-0.058482
-0.0562064
-0.0540003
-0.0518619
-0.0497898
-0.0477821
-0.0458373
-0.0439535
-0.0421291
-0.0403622
-0.0386512
-0.0369943
-0.0353896
-0.0338356
-0.0323303
-0.0308723
-0.0294596
-0.0280908
-0.0267641
-0.025478
-0.0242308
-0.0230211
-0.0218473
-0.020708
-0.0196017
-0.0185271
-0.0174828
-0.0164676
-0.0154801
-0.0145193
-0.0135837
-0.0126727
-0.0117841
-0.010919
-0.0100725
-0.00925057
-0.00843936
-0.00766146
-0.00687353
-0.00615012
-0.00535693
-0.00472652
-0.00385202
-0.00343204
-0.00226796
-0.00239274
-0.000372937
-0.00195783
0.00242851
-0.00305139
0.00764603
-0.0660463
-0.0635426
-0.061113
-0.058756
-0.0564702
-0.054254
-0.0521058
-0.050024
-0.048007
-0.046053
-0.0441603
-0.0423271
-0.0405518
-0.0388326
-0.0371677
-0.0355553
-0.0339937
-0.0324813
-0.0310162
-0.0295968
-0.0282214
-0.0268884
-0.0255962
-0.0243432
-0.0231278
-0.0219486
-0.020804
-0.0196927
-0.0186133
-0.0175644
-0.0165448
-0.015553
-0.0145881
-0.0136486
-0.0127338
-0.0118417
-0.0109731
-0.0101233
-0.00929834
-0.0084842
-0.00770353
-0.00691307
-0.00618711
-0.00539208
-0.00475891
-0.00388428
-0.00345968
-0.00230065
-0.00241319
-0.000414795
-0.00196125
0.00235304
-0.0030056
0.00746788
-0.0663638
-0.063849
-0.0614085
-0.0590407
-0.0567443
-0.0545177
-0.0523593
-0.0502676
-0.0482408
-0.0462772
-0.0443753
-0.0425331
-0.040749
-0.0390212
-0.037348
-0.0357276
-0.0341583
-0.0326383
-0.0311659
-0.0297395
-0.0283573
-0.0270177
-0.0257192
-0.02446
-0.0232388
-0.0220539
-0.0209039
-0.0197874
-0.018703
-0.0176492
-0.016625
-0.0156288
-0.0146596
-0.013716
-0.0127973
-0.0119015
-0.0110294
-0.0101762
-0.00934801
-0.00853084
-0.00774728
-0.00695421
-0.00622558
-0.00542864
-0.00479259
-0.00391784
-0.00348841
-0.00233464
-0.00243445
-0.000458185
-0.00196489
0.00227523
-0.00295862
0.0072853
-0.0666929
-0.0641667
-0.0617149
-0.059336
-0.0570287
-0.0547913
-0.0526224
-0.0505203
-0.0484834
-0.04651
-0.0445984
-0.0427469
-0.0409536
-0.039217
-0.0375352
-0.0359064
-0.034329
-0.0328012
-0.0313213
-0.0298875
-0.0284983
-0.0271519
-0.0258468
-0.0245813
-0.023354
-0.0221632
-0.0210076
-0.0198857
-0.018796
-0.0177373
-0.0167082
-0.0157074
-0.0147338
-0.0137859
-0.0128633
-0.0119635
-0.0110878
-0.0102311
-0.00939956
-0.00857923
-0.00779268
-0.0069969
-0.00626551
-0.00546661
-0.00482755
-0.00395268
-0.00351822
-0.0023699
-0.00245651
-0.000503073
-0.00196876
0.00219518
-0.00291052
0.00709866
-0.0670336
-0.0644956
-0.0620322
-0.0596418
-0.0573231
-0.0550747
-0.0528949
-0.0507821
-0.0487347
-0.0467511
-0.0448296
-0.0429683
-0.0411657
-0.0394199
-0.0377291
-0.0360917
-0.0345059
-0.03297
-0.0314822
-0.0300409
-0.0286444
-0.0272909
-0.025979
-0.024707
-0.0234733
-0.0222765
-0.021115
-0.0199874
-0.0188924
-0.0178284
-0.0167944
-0.0157888
-0.0148106
-0.0138584
-0.0129315
-0.0120278
-0.0111483
-0.0102879
-0.00945295
-0.00862938
-0.00783973
-0.00704115
-0.00630689
-0.00550597
-0.00486378
-0.00398881
-0.00354911
-0.00240643
-0.00247936
-0.000549424
-0.00197287
0.002113
-0.00286139
0.00690829
-0.0648354
-0.06236
-0.0599579
-0.0576276
-0.0553676
-0.0531766
-0.0510528
-0.0489947
-0.0470005
-0.0450687
-0.0431974
-0.041385
-0.0396297
-0.0379297
-0.0362834
-0.034689
-0.0331447
-0.0316488
-0.0301996
-0.0287955
-0.0274347
-0.0261157
-0.0248369
-0.0235967
-0.0223936
-0.021226
-0.0200926
-0.018992
-0.0179227
-0.0168835
-0.015873
-0.0148901
-0.0139333
-0.0130022
-0.0120943
-0.0112108
-0.0103467
-0.00950818
-0.00868124
-0.00788839
-0.00708692
-0.00634969
-0.00554669
-0.00490125
-0.0040262
-0.00358105
-0.00244421
-0.00250299
-0.000597205
-0.00197724
0.0020288
-0.00281134
0.00671454
-0.065186
-0.0626983
-0.060284
-0.0579418
-0.0556701
-0.0534674
-0.0513323
-0.0492631
-0.047258
-0.0453156
-0.043434
-0.0416115
-0.0398464
-0.0381369
-0.0364814
-0.034878
-0.033325
-0.0318207
-0.0303635
-0.0289515
-0.0275832
-0.0262569
-0.0249711
-0.0237241
-0.0225145
-0.0213407
-0.0202013
-0.0190949
-0.01802
-0.0169755
-0.0159599
-0.0149721
-0.0140107
-0.013075
-0.0121629
-0.0112754
-0.0104074
-0.00956521
-0.00873481
-0.00793864
-0.00713421
-0.0063939
-0.00558877
-0.00493995
-0.00406483
-0.00361403
-0.00248321
-0.0025274
-0.00064638
-0.00198188
0.00194266
-0.00276044
0.00651773
-0.0655472
-0.0630469
-0.0606202
-0.0582656
-0.0559818
-0.0537673
-0.0516205
-0.0495398
-0.0475236
-0.0455702
-0.043678
-0.0418451
-0.0400699
-0.0383506
-0.0366856
-0.0350729
-0.033511
-0.0319981
-0.0305325
-0.0291124
-0.0277363
-0.0264026
-0.0251095
-0.0238555
-0.0226392
-0.0214589
-0.0203133
-0.0192009
-0.0181204
-0.0170703
-0.0160495
-0.0150567
-0.0140904
-0.0131502
-0.0122337
-0.0113419
-0.01047
-0.00962401
-0.00879004
-0.00799047
-0.00718298
-0.0064395
-0.00563219
-0.00497987
-0.0041047
-0.00364804
-0.00252343
-0.00255258
-0.000696911
-0.0019868
0.00185471
-0.00270878
0.00631821
-0.0659187
-0.0634055
-0.060966
-0.0585989
-0.0563027
-0.054076
-0.0519172
-0.0498247
-0.047797
-0.0458324
-0.0439292
-0.0420857
-0.0403001
-0.0385707
-0.0368958
-0.0352737
-0.0337026
-0.0321807
-0.0307065
-0.0292781
-0.027894
-0.0265525
-0.0252519
-0.0239908
-0.0227675
-0.0215806
-0.0204286
-0.0193101
-0.0182237
-0.017168
-0.0161417
-0.0151438
-0.0141725
-0.0132276
-0.0123065
-0.0114105
-0.0105344
-0.00968456
-0.00884693
-0.00804384
-0.00723322
-0.00648646
-0.00567693
-0.00502099
-0.00414579
-0.00368307
-0.00256484
-0.00257852
-0.000748762
-0.00199203
0.00176503
-0.00265647
0.00611629
-0.0663003
-0.063774
-0.0613215
-0.0589414
-0.0566325
-0.0543933
-0.0522222
-0.0501177
-0.0480782
-0.0461021
-0.0441876
-0.0423331
-0.0405368
-0.0387971
-0.0371121
-0.0354802
-0.0338996
-0.0323686
-0.0308855
-0.0294486
-0.0280562
-0.0267067
-0.0253985
-0.0241299
-0.0228995
-0.0217058
-0.0205472
-0.0194224
-0.0183299
-0.0172684
-0.0162366
-0.0152333
-0.014257
-0.0133071
-0.0123814
-0.0114809
-0.0106007
-0.00974683
-0.00890544
-0.00809875
-0.00728492
-0.00653478
-0.00572297
-0.00506329
-0.00418808
-0.00371909
-0.00260743
-0.00260521
-0.000801896
-0.00199757
0.00167373
-0.00260358
0.00591229
-0.066692
-0.0641522
-0.0616864
-0.0592932
-0.0569713
-0.0547192
-0.0525355
-0.0504187
-0.0483671
-0.0463791
-0.0444531
-0.0425873
-0.04078
-0.0390296
-0.0373343
-0.0356924
-0.034102
-0.0325616
-0.0310694
-0.0296237
-0.0282228
-0.0268651
-0.025549
-0.0242729
-0.0230352
-0.0218344
-0.020669
-0.0195377
-0.018439
-0.0173715
-0.016334
-0.0153252
-0.0143437
-0.0133888
-0.0124584
-0.0115533
-0.0106688
-0.00981081
-0.00896557
-0.00815516
-0.00733805
-0.00658443
-0.00577031
-0.00510675
-0.00423156
-0.00375611
-0.00265118
-0.00263265
-0.000856277
-0.00200344
0.0015809
-0.00255022
0.00570651
-0.0670937
-0.0645403
-0.0620608
-0.0596542
-0.057319
-0.0550538
-0.0528572
-0.0507277
-0.0486637
-0.0466636
-0.0447257
-0.0428484
-0.0410299
-0.0392685
-0.0375626
-0.0359103
-0.03431
-0.0327598
-0.0312583
-0.0298035
-0.0283939
-0.0270278
-0.0257035
-0.0244196
-0.0231744
-0.0219664
-0.0207941
-0.0196561
-0.018551
-0.0174774
-0.0164339
-0.0154196
-0.0144327
-0.0134727
-0.0125373
-0.0116277
-0.0107386
-0.00987648
-0.00902729
-0.00821307
-0.0073926
-0.00663541
-0.00581892
-0.00515138
-0.00427622
-0.0037941
-0.00269607
-0.00266083
-0.000911869
-0.00200967
0.00148666
-0.00249648
0.00549925
-0.0649374
-0.0624441
-0.0600237
-0.0576749
-0.0553964
-0.0531866
-0.0510442
-0.0489675
-0.046955
-0.0450049
-0.0431158
-0.0412857
-0.0395132
-0.0377963
-0.0361335
-0.0345229
-0.0329628
-0.0314517
-0.0299876
-0.0285691
-0.0271943
-0.0258618
-0.0245698
-0.0233169
-0.0221015
-0.0209221
-0.0197772
-0.0186656
-0.0175857
-0.0165363
-0.0155161
-0.0145237
-0.0135585
-0.0126181
-0.0117037
-0.0108102
-0.00994371
-0.00909049
-0.00827238
-0.00744848
-0.00668763
-0.00586874
-0.00519709
-0.004322
-0.00383302
-0.00274204
-0.00268972
-0.000968601
-0.00201627
0.00139111
-0.00244246
0.00529081
-0.0653399
-0.0628326
-0.0603984
-0.0580359
-0.0557439
-0.0535208
-0.0513653
-0.0492758
-0.0472506
-0.0452883
-0.0433872
-0.0415455
-0.0397615
-0.0380336
-0.03636
-0.0347391
-0.033169
-0.0316481
-0.0301746
-0.028747
-0.0273635
-0.0260225
-0.0247224
-0.0234616
-0.0222387
-0.0210521
-0.0199004
-0.018782
-0.0176958
-0.0166403
-0.0156143
-0.0146164
-0.0136458
-0.0127004
-0.0117811
-0.010883
-0.0100122
-0.00915486
-0.0083328
-0.00750543
-0.00674085
-0.00591957
-0.00524372
-0.00436874
-0.00387273
-0.00278898
-0.00271923
-0.00102637
-0.00202321
0.00129441
-0.00238827
0.00508146
-0.0657496
-0.0632282
-0.0607798
-0.0584034
-0.0560976
-0.053861
-0.0516922
-0.0495896
-0.0475517
-0.0455769
-0.0436636
-0.04181
-0.0400145
-0.0382753
-0.0365909
-0.0349593
-0.033379
-0.0318482
-0.0303652
-0.0289283
-0.0275359
-0.0261863
-0.024878
-0.0236093
-0.0223787
-0.0211848
-0.020026
-0.0189009
-0.0178082
-0.0167465
-0.0157146
-0.014711
-0.013735
-0.0127844
-0.0118603
-0.0109575
-0.0100822
-0.00922074
-0.00839465
-0.00756377
-0.00679537
-0.00597165
-0.0052915
-0.00441665
-0.00391343
-0.00283705
-0.0027495
-0.00108529
-0.00203055
0.00119646
-0.00233383
0.00487126
-0.0661987
-0.0636616
-0.0611979
-0.0588062
-0.0564852
-0.0542338
-0.0520503
-0.0499334
-0.0478814
-0.0458928
-0.0439661
-0.0420994
-0.0402912
-0.0385397
-0.0368432
-0.0352
-0.0336084
-0.0320667
-0.0305731
-0.0291261
-0.0277238
-0.0263648
-0.0250474
-0.0237699
-0.0225309
-0.0213289
-0.0201624
-0.0190299
-0.0179301
-0.0168615
-0.0158231
-0.0148132
-0.0138313
-0.0128751
-0.0119455
-0.0110376
-0.0101574
-0.00929142
-0.00846091
-0.00762616
-0.00685357
-0.00602713
-0.00534228
-0.00446739
-0.00395649
-0.00288749
-0.00278146
-0.00114627
-0.00203876
0.00109653
-0.00227889
0.00465987
-0.0667056
-0.0641521
-0.0616717
-0.0592635
-0.0569261
-0.0546583
-0.0524586
-0.0503257
-0.048258
-0.046254
-0.0443121
-0.0424306
-0.0406078
-0.0388422
-0.0371319
-0.0354753
-0.0338707
-0.0323163
-0.0308106
-0.0293517
-0.0279381
-0.026568
-0.02524
-0.0239523
-0.0227035
-0.021492
-0.0203164
-0.0191752
-0.0180671
-0.0169906
-0.0159446
-0.0149274
-0.0139386
-0.0129757
-0.0120399
-0.011126
-0.0102402
-0.00936893
-0.00853329
-0.00769406
-0.00691667
-0.006087
-0.0053969
-0.00452158
-0.00400245
-0.00294062
-0.00281549
-0.00120932
-0.00204828
0.00099512
-0.00222451
0.00444855
-0.0670013
-0.0644413
-0.0619541
-0.0595387
-0.0571938
-0.0549183
-0.0527107
-0.0505698
-0.048494
-0.0464818
-0.0445317
-0.042642
-0.0408112
-0.0390375
-0.0373193
-0.0356549
-0.0340426
-0.0324807
-0.0309676
-0.0295016
-0.028081
-0.0267041
-0.0253695
-0.0240754
-0.0228205
-0.021603
-0.0204217
-0.019275
-0.0181615
-0.0170799
-0.016029
-0.0150072
-0.0140139
-0.0130468
-0.0121069
-0.0111892
-0.0102998
-0.00942518
-0.00858627
-0.00774433
-0.00696383
-0.00613257
-0.00543879
-0.00456448
-0.00403878
-0.00298505
-0.00284318
-0.00126539
-0.00205592
0.000901304
-0.0021764
0.00424499
-0.0640151
-0.0615395
-0.0591361
-0.0568037
-0.0545411
-0.0523467
-0.0502192
-0.048157
-0.0461586
-0.0442222
-0.0423462
-0.040529
-0.0387689
-0.0370641
-0.0354129
-0.0338137
-0.0322646
-0.0307639
-0.0293101
-0.0279013
-0.026536
-0.0252126
-0.0239294
-0.0226848
-0.0214775
-0.0203059
-0.0191685
-0.018064
-0.0169909
-0.0159482
-0.0149342
-0.0139484
-0.0129884
-0.0120553
-0.0111441
-0.0102607
-0.00939197
-0.00855848
-0.00772202
-0.00694614
-0.00612045
-0.00542998
-0.00456265
-0.00403712
-0.00299552
-0.00284503
-0.0012951
-0.00205159
0.000832792
-0.00213838
0.00406756
-0.0640558
-0.0615849
-0.0591857
-0.0568569
-0.0545974
-0.0524057
-0.0502803
-0.0482198
-0.0462227
-0.0442873
-0.0424121
-0.0405953
-0.0388353
-0.0371304
-0.0354789
-0.0338792
-0.0323294
-0.0308279
-0.0293731
-0.0279633
-0.0265968
-0.0252721
-0.0239875
-0.0227416
-0.0215328
-0.0203597
-0.0192208
-0.0181148
-0.0170402
-0.0159959
-0.0149804
-0.013993
-0.0130315
-0.0120969
-0.0111842
-0.0102994
-0.00942946
-0.00859448
-0.00775723
-0.00697959
-0.00615412
-0.0054608
-0.00459635
-0.0040644
-0.0030329
-0.00286527
-0.00134521
-0.00205382
0.00074702
-0.00209087
0.00388456
-0.064148
-0.0616838
-0.0592904
-0.0569664
-0.0547108
-0.0525222
-0.0503992
-0.0483404
-0.0463444
-0.0444095
-0.0425342
-0.0407169
-0.038956
-0.0372499
-0.0355967
-0.033995
-0.0324431
-0.0309392
-0.0294817
-0.0280691
-0.0266997
-0.025372
-0.0240843
-0.0228352
-0.0216231
-0.0204467
-0.0193045
-0.0181952
-0.0171174
-0.0160699
-0.0150512
-0.0140607
-0.0130961
-0.0121585
-0.011243
-0.0103553
-0.00948286
-0.00864504
-0.00780589
-0.00702511
-0.00619909
-0.00550128
-0.0046396
-0.00409881
-0.00307875
-0.00288956
-0.00140393
-0.00205542
0.000649935
-0.00203419
0.00368958
-0.0642001
-0.0617443
-0.059358
-0.0570404
-0.0547902
-0.0526062
-0.0504871
-0.0484315
-0.046438
-0.044505
-0.0426311
-0.0408147
-0.0390542
-0.037348
-0.0356945
-0.034092
-0.032539
-0.0310339
-0.0295749
-0.0281605
-0.0267892
-0.0254593
-0.0241694
-0.022918
-0.0217035
-0.0205247
-0.0193799
-0.018268
-0.0171876
-0.0161375
-0.0151162
-0.0141232
-0.0131561
-0.012216
-0.0112982
-0.010408
-0.00953349
-0.00869318
-0.00785256
-0.0070689
-0.00624277
-0.0055406
-0.00468224
-0.00413247
-0.00312472
-0.00291322
-0.00146375
-0.00205595
0.000550124
-0.00197496
0.00348898
-0.0642392
-0.0617921
-0.0594137
-0.0571029
-0.0548586
-0.0526798
-0.050565
-0.0485131
-0.0465225
-0.0445919
-0.0427199
-0.0409048
-0.0391451
-0.0374393
-0.0357859
-0.0341831
-0.0326295
-0.0311233
-0.0296632
-0.0282474
-0.0268745
-0.0255429
-0.0242511
-0.0229976
-0.021781
-0.0205999
-0.0194529
-0.0183387
-0.0172559
-0.0162035
-0.0151798
-0.0141844
-0.013215
-0.0122726
-0.0113526
-0.0104601
-0.00958367
-0.008741
-0.00789905
-0.0071126
-0.00628653
-0.00558001
-0.00472523
-0.00416633
-0.00317138
-0.00293705
-0.0015248
-0.00205625
0.000448069
-0.00191433
0.00328322
-0.0642788
-0.0618409
-0.0594707
-0.0571671
-0.0549291
-0.0527556
-0.0506455
-0.0485974
-0.04661
-0.044682
-0.0428118
-0.0409981
-0.0392394
-0.0375341
-0.0358807
-0.0342776
-0.0327233
-0.0312163
-0.0297549
-0.0283377
-0.0269632
-0.0256298
-0.024336
-0.0230804
-0.0218616
-0.0206782
-0.0195288
-0.0184122
-0.017327
-0.016272
-0.0152459
-0.0142481
-0.0132763
-0.0123314
-0.0114091
-0.0105143
-0.00963584
-0.00879071
-0.00794737
-0.00715801
-0.00633199
-0.00562095
-0.00476984
-0.00420149
-0.00321968
-0.00296179
-0.00158779
-0.00205671
0.000343186
-0.00185218
0.00307208
-0.0643183
-0.0618902
-0.0595286
-0.0572326
-0.0550013
-0.0528336
-0.0507284
-0.0486845
-0.0467005
-0.0447752
-0.0429072
-0.0410951
-0.0393374
-0.0376326
-0.0359793
-0.034376
-0.0328211
-0.0313131
-0.0298505
-0.0284319
-0.0270556
-0.0257203
-0.0244245
-0.0231667
-0.0219457
-0.0207599
-0.019608
-0.0184889
-0.0174011
-0.0163436
-0.0153149
-0.0143145
-0.0133402
-0.0123928
-0.0114681
-0.0105708
-0.00969024
-0.00884254
-0.00799774
-0.00720534
-0.00637933
-0.00566359
-0.00481622
-0.00423809
-0.00326976
-0.0029876
-0.00165276
-0.0020575
0.000235545
-0.00178872
0.00285585
-0.064356
-0.0619383
-0.0595859
-0.0572981
-0.055074
-0.0529125
-0.0508125
-0.048773
-0.0467928
-0.0448705
-0.0430048
-0.0411945
-0.039438
-0.0377339
-0.0360809
-0.0344773
-0.0329219
-0.031413
-0.0299493
-0.0285291
-0.0271512
-0.025814
-0.0245161
-0.0232561
-0.0220327
-0.0208445
-0.0196901
-0.0185684
-0.017478
-0.0164179
-0.0153865
-0.0143834
-0.0134065
-0.0124565
-0.0115294
-0.0106294
-0.00974674
-0.00889637
-0.00805004
-0.0072545
-0.00642847
-0.00570787
-0.0048643
-0.00427612
-0.0033215
-0.00301454
-0.00171956
-0.00205881
0.000125458
-0.00172436
0.00263501
-0.0643914
-0.0619848
-0.0596422
-0.0573631
-0.0551466
-0.0529917
-0.0508975
-0.0488628
-0.0468866
-0.0449676
-0.0431045
-0.0412961
-0.039541
-0.0378378
-0.0361851
-0.0345815
-0.0330256
-0.0315159
-0.030051
-0.0286294
-0.0272498
-0.0259107
-0.0246107
-0.0233485
-0.0221227
-0.020932
-0.0197751
-0.0218227
-0.0207096
-0.0196287
-0.0185787
-0.0175582
-0.0165658
-0.0156005
-0.0146609
-0.013746
-0.0128545
-0.0119856
-0.0111374
-0.0103107
-0.00950094
-0.00871382
-0.00793574
-0.00718904
-0.0064299
-0.00573493
-0.00496315
-0.00436285
-0.00349089
-0.00312108
-0.00190046
-0.00216216
0.000106265
-0.00192421
0.00332197
-0.00360751
0.00983214
)
;

boundaryField
{