/*--------------------------------*- C++ -*----------------------------------*\
  =========                 |
  \\      /  F ield         | OpenFOAM: The Open Source CFD Toolbox
   \\    /   O peration     | Website:  https://openfoam.org
    \\  /    A nd           | Version:  7
     \\/     M anipulation  |
\*---------------------------------------------------------------------------*/
FoamFile
{
    version     2.0;
    format      ascii;
    class       volScalarField;
    location    "5";
    object      p;
}
// * * * * * * * * * * * * * * * * * * * * * * * * * * * * * * * * * * * * * //

dimensions      [0 2 -2 0 0 0 0];

internalField   nonuniform List<scalar> 
6050
(
-0.464871
-0.47958
-0.486123
-0.480984
-0.460987
-0.424213
-0.371449
-0.305484
-0.232107
-0.158642
-0.090701
-0.0355169
0.0083933
-0.466815
-0.48212
-0.489448
-0.485293
-0.46645
-0.430995
-0.379108
-0.313671
-0.240351
-0.166614
-0.0978045
-0.0423173
0.00232413
-0.470327
-0.486681
-0.495389
-0.492966
-0.476144
-0.442795
-0.39263
-0.328208
-0.255041
-0.180931
-0.110995
-0.0546159
-0.00914399
-0.474741
-0.492358
-0.502729
-0.502394
-0.488007
-0.457245
-0.409286
-0.346168
-0.273189
-0.198762
-0.128332
-0.0708324
-0.024696
-0.479236
-0.498062
-0.510049
-0.511781
-0.499928
-0.471722
-0.426024
-0.36417
-0.291937
-0.217614
-0.147165
-0.0889686
-0.0425585
-0.502735
-0.516028
-0.519477
-0.509751
-0.483779
-0.440067
-0.379842
-0.308664
-0.23498
-0.165253
-0.107114
-0.0609408
-0.505528
-0.519654
-0.524319
-0.516108
-0.491867
-0.44982
-0.391185
-0.321459
-0.249145
-0.180965
-0.12377
-0.0784068
-0.505935
-0.520356
-0.525618
-0.518335
-0.495214
-0.454388
-0.39728
-0.329398
-0.259236
-0.193428
-0.138033
-0.0940326
-0.503754
-0.517984
-0.523347
-0.51636
-0.493724
-0.453656
-0.398016
-0.332376
-0.265123
-0.202435
-0.149563
-0.107382
-0.499148
-0.512846
-0.517822
-0.510519
-0.487739
-0.448008
-0.393834
-0.330869
-0.267206
-0.208238
-0.158425
-0.118381
-0.492515
-0.505387
-0.509528
-0.501306
-0.47779
-0.43811
-0.385537
-0.325719
-0.266194
-0.211344
-0.164914
-0.127177
-0.496124
-0.498939
-0.4892
-0.464475
-0.424797
-0.374135
-0.31793
-0.262907
-0.212339
-0.169416
-0.134022
-0.485473
-0.486407
-0.474622
-0.448468
-0.409036
-0.360712
-0.308493
-0.258103
-0.211766
-0.172313
-0.139199
-0.473686
-0.472183
-0.458024
-0.430554
-0.39184
-0.346278
-0.298239
-0.252377
-0.210059
-0.173938
-0.142974
-0.460884
-0.456516
-0.439962
-0.411598
-0.37415
-0.331642
-0.287765
-0.246137
-0.207539
-0.174552
-0.145574
-0.439751
-0.421098
-0.392427
-0.356707
-0.317358
-0.277443
-0.239628
-0.204428
-0.174328
-0.147143
-0.422346
-0.402109
-0.373708
-0.34
-0.303743
-0.267462
-0.232991
-0.20088
-0.173335
-0.147726
-0.383564
-0.355883
-0.324287
-0.290941
-0.2579
-0.226328
-0.197013
-0.171547
-0.147335
-0.36586
-0.339181
-0.309659
-0.278977
-0.248773
-0.219747
-0.19292
-0.168931
-0.146149
-0.323669
-0.296095
-0.267802
-0.240065
-0.213338
-0.188684
-0.165721
-0.14469
-0.309303
-0.283506
-0.257325
-0.231742
-0.207114
-0.184355
-0.16265
-0.143305
-0.271776
-0.247449
-0.22376
-0.201008
-0.179894
-0.159888
-0.142275
-0.260785
-0.238083
-0.216062
-0.194968
-0.175411
-0.156942
-0.140609
-0.229142
-0.208589
-0.18898
-0.170795
-0.153683
-0.138571
-0.201291
-0.182995
-0.166047
-0.150142
-0.136044
-0.176992
-0.161138
-0.146295
-0.133141
-0.156068
-0.142185
-0.129871
-0.137816
-0.126274
-0.137816
-0.126274
-0.156068
-0.142185
-0.129871
-0.176992
-0.161138
-0.146295
-0.133141
-0.201291
-0.182995
-0.166047
-0.150142
-0.136044
-0.229142
-0.208589
-0.18898
-0.170795
-0.153683
-0.138571
-0.260785
-0.238083
-0.216062
-0.194968
-0.175411
-0.156942
-0.140609
-0.271776
-0.247449
-0.22376
-0.201008
-0.179894
-0.159888
-0.142275
-0.309303
-0.283506
-0.257325
-0.231742
-0.207114
-0.184355
-0.16265
-0.143305
-0.323669
-0.296095
-0.267802
-0.240065
-0.213338
-0.188684
-0.165721
-0.14469
-0.36586
-0.339181
-0.309659
-0.278977
-0.248773
-0.219747
-0.19292
-0.168931
-0.146149
-0.383564
-0.355883
-0.324287
-0.290941
-0.2579
-0.226328
-0.197013
-0.171547
-0.147335
-0.422346
-0.402109
-0.373708
-0.34
-0.303743
-0.267462
-0.232991
-0.20088
-0.173335
-0.147726
-0.439751
-0.421098
-0.392427
-0.356707
-0.317358
-0.277443
-0.239628
-0.204428
-0.174328
-0.147143
-0.460884
-0.456516
-0.439962
-0.411598
-0.37415
-0.331642
-0.287765
-0.246137
-0.207539
-0.174552
-0.145574
-0.473685
-0.472183
-0.458024
-0.430554
-0.39184
-0.346278
-0.298239
-0.252377
-0.210059
-0.173938
-0.142974
-0.485473
-0.486407
-0.474622
-0.448468
-0.409036
-0.360712
-0.308494
-0.258103
-0.211766
-0.172313
-0.139199
-0.496124
-0.498939
-0.489199
-0.464475
-0.424797
-0.374135
-0.317931
-0.262907
-0.212339
-0.169416
-0.134023
-0.492515
-0.505387
-0.509528
-0.501306
-0.47779
-0.43811
-0.385537
-0.325719
-0.266194
-0.211344
-0.164914
-0.127177
-0.499148
-0.512846
-0.517822
-0.510519
-0.487739
-0.448008
-0.393835
-0.330869
-0.267206
-0.208238
-0.158425
-0.118381
-0.503754
-0.517984
-0.523347
-0.51636
-0.493724
-0.453656
-0.398016
-0.332376
-0.265123
-0.202435
-0.149563
-0.107382
-0.505935
-0.520356
-0.525618
-0.518335
-0.495214
-0.454388
-0.39728
-0.329398
-0.259236
-0.193428
-0.138033
-0.0940327
-0.505528
-0.519654
-0.524319
-0.516108
-0.491867
-0.44982
-0.391185
-0.321459
-0.249145
-0.180965
-0.12377
-0.0784069
-0.502735
-0.516028
-0.519476
-0.509751
-0.483779
-0.440067
-0.379843
-0.308664
-0.234981
-0.165253
-0.107114
-0.0609409
-0.479236
-0.498062
-0.510049
-0.511781
-0.499928
-0.471722
-0.426024
-0.36417
-0.291937
-0.217614
-0.147165
-0.0889687
-0.0425586
-0.474741
-0.492358
-0.502728
-0.502394
-0.488006
-0.457245
-0.409286
-0.346168
-0.273189
-0.198763
-0.128332
-0.0708326
-0.024696
-0.470327
-0.486681
-0.495389
-0.492966
-0.476144
-0.442795
-0.39263
-0.328208
-0.255041
-0.180931
-0.110995
-0.054616
-0.00914406
-0.466815
-0.48212
-0.489448
-0.485293
-0.46645
-0.430995
-0.379108
-0.313671
-0.240351
-0.166614
-0.0978045
-0.0423174
0.00232409
-0.464871
-0.47958
-0.486123
-0.480984
-0.460987
-0.424213
-0.371449
-0.305484
-0.232108
-0.158642
-0.090701
-0.0355169
0.00839329
0.0286554
0.0395955
0.048557
0.0555272
0.0605726
0.0639012
0.0657622
0.0663858
0.065974
0.0647122
0.0627727
0.0603128
0.0574716
0.0543679
0.0511006
0.0477502
0.0443816
0.0410456
0.0377807
0.0346154
0.0315703
0.0286605
0.0258974
0.0232901
0.0208466
0.0185733
0.0164749
0.0145532
0.0128065
0.0112301
0.00981576
0.00855297
0.00743131
0.00643953
0.00555811
0.00478331
0.00409839
0.00349612
0.00296774
0.00250581
0.0021018
0.00175029
0.0014428
0.00117599
0.000940417
0.000735529
0.00054927
0.000385254
0.000226017
8.16851e-05
0.023131
0.0345296
0.0440776
0.0515587
0.0570147
0.0606986
0.0628886
0.0638192
0.0636894
0.0626804
0.0609677
0.058713
0.0560578
0.0531221
0.0500059
0.0467914
0.0435452
0.0403192
0.0371534
0.0340772
0.0311122
0.0282739
0.0255741
0.0230224
0.0206268
0.0183943
0.0163298
0.014436
0.0127119
0.0111535
0.00975359
0.00850219
0.00738946
0.00640478
0.00552941
0.00475963
0.00407877
0.00347976
0.0029541
0.00249445
0.00209237
0.0017425
0.00143642
0.00117081
0.000936297
0.000732323
0.000546892
0.000383597
0.000225058
8.13365e-05
0.0122974
0.0245317
0.0352322
0.0437083
0.049959
0.0543367
0.0571775
0.0587205
0.0591552
0.0586588
0.0574063
0.0555665
0.0532864
0.0506886
0.0478753
0.0449315
0.041927
0.0389169
0.035944
0.0330401
0.0302287
0.0275271
0.0249483
0.0225024
0.0201984
0.0180439
0.0160449
0.014205
0.0125249
0.0110018
0.00963012
0.0084012
0.00730613
0.00633551
0.00547218
0.0047124
0.0040396
0.00344708
0.00292683
0.00247175
0.00207353
0.00172694
0.00142367
0.00116047
0.000928067
0.000725917
0.00054214
0.000380287
0.000223143
8.06397e-05
-0.00289542
0.0103226
0.022554
0.0323848
0.0397292
0.0450783
0.0488473
0.0512741
0.052529
0.0527861
0.0522198
0.0509987
0.0492756
0.0471782
0.0448124
0.042267
0.0396162
0.0369195
0.0342242
0.0315661
0.0289722
0.026463
0.0240534
0.0217558
0.0195803
0.0175357
0.0156294
0.0138665
0.0122495
0.0107776
0.00944705
0.00825109
0.00718208
0.00623227
0.00538678
0.00464187
0.00398101
0.00339818
0.00288602
0.00243777
0.00204533
0.00170364
0.00140458
0.00114499
0.000915743
0.000716324
0.000535024
0.000375328
0.000220273
7.95955e-05
-0.0207429
-0.00667974
0.00713239
0.0184462
0.0270309
0.0335152
0.038395
0.0418959
0.0441585
0.0453483
0.0456485
0.0452203
0.0442108
0.0427519
0.0409565
0.0389189
0.036718
0.0344187
0.0320732
0.0297228
0.0273996
0.0251282
0.0229272
0.0208118
0.0187944
0.0168857
0.0150946
0.0134282
0.011891
0.0104843
0.00920664
0.00805339
0.00701836
0.00609578
0.00527386
0.00454838
0.00390319
0.00333316
0.00283176
0.00239259
0.00200783
0.00167266
0.00137919
0.0011244
0.000899353
0.000703565
0.000525557
0.000368731
0.000216454
7.82053e-05
-0.0393756
-0.0247627
-0.00964294
0.00301423
0.012805
0.0204524
0.0265063
0.0311643
0.0345288
0.0367516
0.0380183
0.0384973
0.0383178
0.0376027
0.0364695
0.0350213
0.0333438
0.0315068
0.0295681
0.0275746
0.0255641
0.0235665
0.0216051
0.0196986
0.0178625
0.0161101
0.0144525
0.0128987
0.0114553
0.0101259
0.00891153
0.00780985
0.00681624
0.0059271
0.00513452
0.00443236
0.00380632
0.00325218
0.00276418
0.00233631
0.00196112
0.00163406
0.00134756
0.00109875
0.000878931
0.000687666
0.000513759
0.000360506
0.000211691
7.64711e-05
-0.0572395
-0.0423985
-0.0264492
-0.0128005
-0.00199695
0.0067154
0.0138914
0.0196835
0.0241519
0.0274291
0.029694
0.0311129
0.031819
0.0319154
0.0315085
0.0307053
0.0296001
0.0282701
0.0267787
0.0251782
0.0235121
0.0218157
0.0201175
0.0184405
0.016804
0.015224
0.0137142
0.0122859
0.010948
0.00970645
0.00856448
0.00752239
0.00657715
0.00572738
0.00497088
0.00429417
0.00369054
0.00315542
0.00268344
0.00226908
0.0019053
0.00158793
0.00130976
0.00106809
0.000854522
0.00066866
0.000499654
0.00035067
0.000205992
7.43951e-05
-0.0733277
-0.0585342
-0.0422866
-0.0280984
-0.0165752
-0.00698916
0.00116634
0.00798319
0.0134801
0.0177674
0.0210072
0.0233515
0.0249279
0.0258478
0.026201
0.0260798
0.0255788
0.0247834
0.0237647
0.0225814
0.021282
0.0199069
0.0184896
0.0170579
0.0156349
0.0142399
0.0128894
0.0115973
0.0103746
0.00922978
0.00816825
0.00719291
0.00630248
0.00549743
0.00478838
0.0041339
0.00355589
0.00304311
0.00258976
0.00219104
0.0018405
0.00153437
0.00126587
0.00103249
0.000826181
0.000646589
0.000483269
0.00033924
0.000199368
7.19804e-05
-0.0871761
-0.072639
-0.0565632
-0.0422791
-0.0303598
-0.0201403
-0.0112039
-0.00352826
0.00286779
0.00807089
0.0122191
0.0154415
0.0178509
0.0195534
0.0206502
0.0212227
0.0213468
0.0211048
0.0205745
0.0198228
0.0189044
0.0178646
0.0167414
0.0155669
0.0143682
0.0131683
0.0119865
0.0108392
0.00973998
0.00869947
0.00772544
0.00682326
0.00599372
0.00523767
0.00457537
0.00394799
0.0034022
0.00291554
0.0024834
0.0021024
0.00176686
0.0014735
0.00121599
0.000992032
0.00079397
0.000621501
0.000464641
0.00032624
0.000191828
6.92304e-05
-0.0987196
-0.0845877
-0.0690408
-0.0550292
-0.0430133
-0.0324081
-0.0229112
-0.0145696
-0.00743331
-0.00143976
0.0035198
0.0075469
0.0107345
0.0131769
0.0149693
0.0162014
0.0169481
0.0172714
0.0172423
0.0169322
0.0164036
0.0157081
0.0148882
0.01398
0.0130143
0.0120175
0.011012
0.0100169
0.00904816
0.00811873
0.00723849
0.00641512
0.0056523
0.00495076
0.00431618
0.00373722
0.00323005
0.00277322
0.00236463
0.00200335
0.00168453
0.00140545
0.00116022
0.000946808
0.000757962
0.000593451
0.000443807
0.000311694
0.000183387
6.61495e-05
-0.108117
-0.0944937
-0.0797185
-0.0662513
-0.0543847
-0.04362
-0.0337781
-0.0249672
-0.0172589
-0.0106144
-0.00495787
-0.000217486
0.0036782
0.00680802
0.00925561
0.0111039
0.0124314
0.0133079
0.0137866
0.0139284
0.0137975
0.0134526
0.0129423
0.0123071
0.0115812
0.0107943
0.00997163
0.00913501
0.00830285
0.00749041
0.00670969
0.00597037
0.00527874
0.00463429
0.00403121
0.0035067
0.00304105
0.00261626
0.00223374
0.00189412
0.0015937
0.00133036
0.00109871
0.000896923
0.000718241
0.000562502
0.000420813
0.000295633
0.00017406
6.2743e-05
-0.115618
-0.102573
-0.0887215
-0.0759811
-0.0644479
-0.0537142
-0.0437225
-0.0346269
-0.02651
-0.0193562
-0.0131237
-0.00777055
-0.00324721
0.000507886
0.00356396
0.005993
0.0078669
0.00925529
0.0102234
0.0108198
0.0110958
0.0111089
0.0109136
0.0105563
0.0100756
0.00950406
0.0088699
0.00819735
0.00750723
0.00681711
0.00614108
0.00549066
0.00487424
0.00429302
0.00374449
0.00324501
0.00283361
0.00244479
0.00209107
0.00177492
0.00149452
0.00124841
0.00103158
0.000842492
0.000674897
0.000528725
0.00039571
0.000278091
0.000163864
5.90171e-05
-0.121489
-0.109066
-0.0962258
-0.0843208
-0.0732473
-0.062697
-0.0527242
-0.0435081
-0.0351326
-0.0276052
-0.0209174
-0.0150548
-0.00998908
-0.00567728
-0.00206608
0.000903676
0.00329428
0.00516926
0.00659129
0.00761985
0.00830229
0.00868141
0.00880851
0.00873444
0.00850329
0.00815178
0.00771092
0.00720737
0.00666423
0.00610121
0.00553456
0.00497755
0.00444046
0.00392927
0.00345054
0.00303684
0.0026152
0.00226014
0.00193738
0.001646
0.00138713
0.00115974
0.000958987
0.000783644
0.000628035
0.000492201
0.000368554
0.000259105
0.000152819
5.49796e-05
-0.125983
-0.114213
-0.102421
-0.0913973
-0.0808597
-0.0706125
-0.0608006
-0.0516037
-0.043102
-0.0353269
-0.0282996
-0.0220289
-0.0165071
-0.0117102
-0.00760168
-0.00413615
-0.00126233
0.00107478
0.00293204
0.00436604
0.00543068
0.00617268
0.00662915
0.00684559
0.00686923
0.00674189
0.00649848
0.0061683
0.00577657
0.00534507
0.00489204
0.00443267
0.00397913
0.00354088
0.00312511
0.00273443
0.00237712
0.00205921
0.00177219
0.00150765
0.00127178
0.00106453
0.000881066
0.000720505
0.000577759
0.000453012
0.000339408
0.00023872
0.000140946
5.064e-05
-0.129337
-0.118249
-0.107499
-0.0973432
-0.0873754
-0.077525
-0.06799
-0.0589264
-0.0504121
-0.0425034
-0.0352443
-0.0286625
-0.0227693
-0.0175598
-0.013014
-0.00910107
-0.00578161
-0.00301031
-0.000737879
0.00108699
0.00251559
0.00359737
0.00437754
0.0048901
0.00517554
0.00527756
0.00523564
0.00508269
0.00484643
0.00455056
0.00421518
0.00385736
0.0034912
0.00312793
0.00277583
0.0024412
0.00212466
0.00183382
0.00159178
0.00135944
0.00114893
0.000963226
0.000798052
0.00065323
0.000524187
0.000411245
0.000308334
0.000216979
0.000128266
4.60088e-05
-0.131766
-0.12141
-0.111653
-0.102288
-0.0928911
-0.0835119
-0.0743436
-0.0655016
-0.0570707
-0.0491297
-0.041737
-0.0349349
-0.0287522
-0.0232017
-0.0182796
-0.0139694
-0.0102446
-0.00707028
-0.00440563
-0.00220596
-0.000424605
0.000985436
0.00206975
0.00287116
0.00342257
0.00376034
0.00392493
0.00395302
0.00387569
0.00371901
0.00350496
0.00325231
0.00297697
0.00269185
0.00240675
0.00213081
0.00186322
0.00162489
0.0013966
0.00119835
0.00101757
0.000856022
0.000710263
0.000582065
0.000467485
0.000367019
0.000275413
0.000193937
0.000114805
4.10989e-05
-0.13343
-0.123921
-0.115069
-0.106359
-0.0975169
-0.0886657
-0.079924
-0.0713674
-0.0630993
-0.0552131
-0.0477728
-0.0408325
-0.034437
-0.0286143
-0.0233755
-0.0187185
-0.0146298
-0.0110855
-0.0080541
-0.00549834
-0.00337725
-0.00164788
-0.000266734
0.000808544
0.00161811
0.00219427
0.00257109
0.00278505
0.00287022
0.00285563
0.00276561
0.00262085
0.00243896
0.0022346
0.00201929
0.00180262
0.0015891
0.00138605
0.00119837
0.00102994
0.000875991
0.000741733
0.000617267
0.000507076
0.000407797
0.000320476
0.000240764
0.000169674
0.000100608
3.59366e-05
-0.134461
-0.125934
-0.117845
-0.109652
-0.101348
-0.093054
-0.0847656
-0.076539
-0.0684988
-0.0607388
-0.0533238
-0.0463189
-0.039782
-0.0337535
-0.0282583
-0.0233078
-0.0189007
-0.0150247
-0.0116576
-0.00877042
-0.00632837
-0.00429333
-0.00262528
-0.00128351
-0.000228336
0.000578228
0.00116902
0.00157484
0.00182885
0.00196169
0.00199997
0.00196662
0.00188119
0.00176016
0.0016168
0.00146176
0.00130175
0.00114459
0.000993627
0.000860229
0.000737221
0.000621765
0.000518441
0.000427907
0.000345034
0.000271598
0.000204438
0.000144242
8.57088e-05
3.05608e-05
-0.13513
-0.127654
-0.1201
-0.112316
-0.10455
-0.0968079
-0.0889804
-0.0811325
-0.0733889
-0.0658268
-0.0585102
-0.0515128
-0.0449019
-0.0387291
-0.0330317
-0.0278342
-0.0231477
-0.0189709
-0.0152922
-0.0120909
-0.00933946
-0.00700545
-0.00505301
-0.00344446
-0.00214217
-0.00110975
-0.000312527
0.000284423
0.000712351
0.00100059
0.001176
0.00126261
0.00128155
0.00125093
0.00118562
0.00109759
0.000995295
0.000887413
0.000779636
0.000679419
0.000586412
0.000498917
0.000419303
0.000345364
0.000279137
0.00022006
0.000166162
0.000117473
7.00008e-05
2.49528e-05
-0.136136
-0.129647
-0.122361
-0.11484
-0.107527
-0.100201
-0.0927433
-0.0852446
-0.0777986
-0.0704619
-0.0632913
-0.0563592
-0.0497339
-0.0434738
-0.0376264
-0.0322276
-0.0273003
-0.0228547
-0.0188899
-0.0153944
-0.0123487
-0.00972664
-0.00749737
-0.00562681
-0.0040796
-0.00282046
-0.00181528
-0.00103053
-0.000433824
5.63745e-06
0.000315726
0.000521469
0.000645318
0.000706994
0.000722679
0.000705367
0.000664814
0.000610234
0.000548399
0.000486011
0.000425373
0.000365353
0.000309351
0.000257648
0.000209922
0.00016692
0.000126059
8.93866e-05
5.34189e-05
1.90668e-05
-0.133852
-0.129042
-0.121568
-0.114344
-0.107386
-0.100325
-0.0931297
-0.0858902
-0.0786766
-0.0715443
-0.0645537
-0.0577722
-0.0512647
-0.0450885
-0.0392917
-0.0339117
-0.0289739
-0.0244927
-0.0204708
-0.0169014
-0.0137688
-0.0110507
-0.00871969
-0.00674489
-0.00509321
-0.00373123
-0.00262674
-0.00174826
-0.00106486
-0.000546142
-0.000163786
0.00010738
0.000289342
0.000401354
0.000460108
0.000479755
0.000471571
0.000445518
0.000408914
0.000368049
0.000325599
0.000281982
0.000240474
0.000201247
0.000164306
0.000130821
9.89804e-05
7.02389e-05
4.19319e-05
1.50251e-05
-0.131311
-0.126899
-0.119642
-0.112707
-0.106051
-0.0992607
-0.0923176
-0.0853182
-0.0783316
-0.0714117
-0.0646166
-0.0580103
-0.0516549
-0.0456064
-0.0399121
-0.0346097
-0.0297259
-0.0252768
-0.0212677
-0.0176942
-0.0145436
-0.0117963
-0.00942747
-0.00740881
-0.00570937
-0.00429751
-0.0031424
-0.00221372
-0.0014815
-0.000916152
-0.000489912
-0.000178043
4.11263e-05
0.000186686
0.00027541
0.000321661
0.000337087
0.000331815
0.000313381
0.000287998
0.000258802
0.000226932
0.000195432
0.000164773
0.000135288
0.000108207
8.22191e-05
5.84938e-05
3.5016e-05
1.25501e-05
-0.128273
-0.124242
-0.117366
-0.110717
-0.104365
-0.0978727
-0.0912054
-0.0844672
-0.0777308
-0.0710474
-0.0644717
-0.0580643
-0.051885
-0.0459877
-0.040419
-0.0352163
-0.0304075
-0.0260099
-0.0220311
-0.0184692
-0.015314
-0.0125489
-0.0101517
-0.00809663
-0.00635502
-0.00489725
-0.00369398
-0.00271616
-0.00193492
-0.00132177
-0.000849864
-0.000495077
-0.000236065
-5.39102e-05
6.80708e-05
0.000144213
0.000186299
0.000204509
0.000206562
0.000198731
0.00018466
0.000166006
0.000145721
0.000124721
0.000103634
8.36739e-05
6.40914e-05
4.58289e-05
2.7615e-05
9.87211e-06
-0.12517
-0.12162
-0.115156
-0.10877
-0.102701
-0.0965047
-0.0901136
-0.0836349
-0.0771466
-0.0706979
-0.0643399
-0.0581302
-0.0521262
-0.0463799
-0.0409369
-0.0358347
-0.0311018
-0.026757
-0.0228097
-0.0192605
-0.0161018
-0.0133197
-0.0108946
-0.00880326
-0.00701929
-0.00551508
-0.00426287
-0.00323496
-0.00240366
-0.00174162
-0.0012229
-0.000824
-0.000523942
-0.00030403
-0.000147704
-4.0664e-05
2.90055e-05
7.15439e-05
9.48619e-05
0.000105348
0.000107069
0.000102166
9.36263e-05
8.27403e-05
7.04486e-05
5.79467e-05
4.50724e-05
3.25447e-05
1.98603e-05
7.05369e-06
-0.122113
-0.119012
-0.112947
-0.106816
-0.101017
-0.0951157
-0.0890042
-0.0827862
-0.0765462
-0.0703327
-0.0641934
-0.0581826
-0.0523554
-0.0467622
-0.0414474
-0.0364484
-0.0317942
-0.0275049
-0.0235918
-0.0200577
-0.0168977
-0.0141003
-0.0116487
-0.00952201
-0.00769621
-0.00614572
-0.00484445
-0.00376612
-0.00288429
-0.00217274
-0.00160647
-0.00116264
-0.000820688
-0.000562192
-0.000370727
-0.000232023
-0.000134043
-6.64863e-05
-2.12464e-05
8.19702e-06
2.6274e-05
3.56082e-05
3.92874e-05
3.89076e-05
3.57644e-05
3.10398e-05
2.51674e-05
1.86388e-05
1.17444e-05
4.09316e-06
-0.119097
-0.116367
-0.11069
-0.104822
-0.0992848
-0.0936752
-0.0878472
-0.0818929
-0.075903
-0.069927
-0.064009
-0.0582003
-0.0525534
-0.0471171
-0.0419349
-0.0370436
-0.0324727
-0.0282435
-0.024369
-0.0208541
-0.0176963
-0.0148867
-0.0124111
-0.010251
-0.00838477
-0.00678894
-0.00543914
-0.00431053
-0.00337802
-0.00261655
-0.00200212
-0.00151259
-0.00112788
-0.000829883
-0.000602337
-0.000431032
-0.00030384
-0.000210411
-0.000142451
-9.32976e-05
-5.81784e-05
-3.4021e-05
-1.75789e-05
-6.99436e-06
-5.75053e-07
2.84298e-06
4.30001e-06
4.05987e-06
3.23954e-06
9.81841e-07
-0.11608
-0.113678
-0.108387
-0.10279
-0.0975088
-0.0921861
-0.0866435
-0.0809554
-0.0752168
-0.0694797
-0.0637854
-0.0581814
-0.052718
-0.0474423
-0.0423966
-0.0376175
-0.0331346
-0.0289702
-0.0251387
-0.0216472
-0.0184954
-0.015677
-0.0131802
-0.010989
-0.00908413
-0.00744418
-0.00604658
-0.00486805
-0.00388486
-0.00307319
-0.00241008
-0.00187415
-0.00144586
-0.00110745
-0.000842874
-0.000638007
-0.000480674
-0.000360487
-0.000268976
-0.000199332
-0.00014645
-0.000106856
-7.70845e-05
-5.50508e-05
-3.86336e-05
-2.66915e-05
-1.75646e-05
-1.12151e-05
-5.66779e-06
-2.28188e-06
-0.113049
-0.110955
-0.106048
-0.100726
-0.0956965
-0.0906541
-0.0853965
-0.0799762
-0.0744897
-0.0689922
-0.0635229
-0.0581257
-0.0528484
-0.0477365
-0.0428312
-0.0381683
-0.0337777
-0.0296825
-0.0258986
-0.0224347
-0.0192929
-0.0164691
-0.0139541
-0.0117343
-0.00979273
-0.00811007
-0.00666561
-0.0054377
-0.004404
-0.00354201
-0.00282983
-0.00224692
-0.00177432
-0.00139468
-0.00109218
-0.000852849
-0.000664485
-0.000516686
-0.000400814
-0.000309916
-0.000238559
-0.000182917
-0.000139253
-0.000105282
-7.84311e-05
-5.75806e-05
-4.04404e-05
-2.71954e-05
-1.49847e-05
-5.69683e-06
-0.110017
-0.108209
-0.103676
-0.0986351
-0.0938522
-0.0890828
-0.0841081
-0.0789563
-0.0737219
-0.0684642
-0.0632207
-0.0580321
-0.0529431
-0.0479979
-0.0432362
-0.0386934
-0.0343994
-0.0303779
-0.0266459
-0.0232139
-0.0200861
-0.0172606
-0.0147306
-0.0124848
-0.0105087
-0.00878498
-0.00729485
-0.00601829
-0.00493446
-0.0040222
-0.00326073
-0.0026304
-0.00211288
-0.00169127
-0.00135005
-0.00107541
-0.00085518
-0.00067895
-0.000537931
-0.000425035
-0.000334506
-0.000262212
-0.000204095
-0.0001577
-0.00011998
-8.98355e-05
-6.43367e-05
-4.38874e-05
-2.47169e-05
-9.2611e-06
-0.106996
-0.105445
-0.101275
-0.0965183
-0.09198
-0.0874761
-0.0827803
-0.0778966
-0.0729143
-0.0678957
-0.0628783
-0.0578992
-0.0530004
-0.0482242
-0.0436093
-0.0391903
-0.0349969
-0.0310533
-0.0273776
-0.0239819
-0.0208722
-0.0180488
-0.0155071
-0.0132383
-0.01123
-0.00946715
-0.00793274
-0.00660852
-0.00547516
-0.00451287
-0.00370206
-0.00302402
-0.00246109
-0.00199689
-0.00161623
-0.00130552
-0.00105263
-0.00084719
-0.000680268
-0.000544655
-0.000434275
-0.000344728
-0.000271608
-0.000212304
-0.000163284
-0.000123459
-8.92571e-05
-6.12929e-05
-3.48677e-05
-1.29717e-05
-0.10399
-0.102669
-0.0988495
-0.09438
-0.0900846
-0.0858383
-0.0814161
-0.076799
-0.0720677
-0.0672872
-0.0624954
-0.0577263
-0.053019
-0.0484139
-0.0439484
-0.0396565
-0.0355675
-0.0317059
-0.0280909
-0.0247357
-0.0216482
-0.0188308
-0.0162811
-0.0139924
-0.0119545
-0.0101546
-0.00857758
-0.00720689
-0.00602481
-0.00501294
-0.00415294
-0.00342704
-0.00281837
-0.00231107
-0.00189036
-0.00154289
-0.00125663
-0.00102125
-0.000827713
-0.000668693
-0.000537808
-0.000430425
-0.000341765
-0.000269075
-0.000208328
-0.000158442
-0.000115196
-7.94066e-05
-4.54365e-05
-1.6824e-05
-0.101006
-0.0998874
-0.0964063
-0.0922249
-0.0881708
-0.0841747
-0.0800193
-0.0756657
-0.071184
-0.06664
-0.0620724
-0.0575132
-0.0529981
-0.0485655
-0.0442518
-0.0400898
-0.0361087
-0.0323331
-0.0287828
-0.0254725
-0.0224114
-0.019604
-0.0170498
-0.0147444
-0.0126798
-0.0108452
-0.00922744
-0.00781173
-0.00658194
-0.00552116
-0.00461228
-0.00383858
-0.00318398
-0.00263322
-0.00217196
-0.00178714
-0.00146687
-0.0012009
-0.00098008
-0.000797007
-0.000645001
-0.00051922
-0.000414505
-0.000327964
-0.000255079
-0.000194759
-0.000142135
-9.82152e-05
-5.6418e-05
-2.08116e-05
-0.0980519
-0.0971113
-0.0939525
-0.0900583
-0.0862442
-0.0824908
-0.0785945
-0.0745001
-0.0702655
-0.0659556
-0.0616105
-0.05726
-0.0529373
-0.0486783
-0.0445179
-0.0404884
-0.0366183
-0.0329322
-0.0294507
-0.0261892
-0.0231587
-0.0203652
-0.0178103
-0.0154917
-0.0134034
-0.0115366
-0.00988017
-0.00842109
-0.00714485
-0.00603603
-0.00507881
-0.00425755
-0.003557
-0.00296258
-0.0024604
-0.00203776
-0.00168294
-0.0013858
-0.0011371
-0.000929389
-0.00075569
-0.000610983
-0.000489727
-0.000388894
-0.000303476
-0.000232363
-0.000170043
-0.000117695
-6.78009e-05
-2.49262e-05
-0.0951384
-0.0943503
-0.091496
-0.0878863
-0.0843106
-0.0807927
-0.077147
-0.0733061
-0.0693151
-0.0652364
-0.061111
-0.0569676
-0.0528366
-0.0487514
-0.0447457
-0.0408506
-0.0370941
-0.0335008
-0.0300917
-0.0268831
-0.0238871
-0.0211115
-0.0185597
-0.0162313
-0.0141224
-0.0122262
-0.0105334
-0.00903283
-0.00771162
-0.00655586
-0.00555105
-0.00468267
-0.00393634
-0.00329821
-0.0027549
-0.0022941
-0.00190431
-0.00157551
-0.00129843
-0.00106555
-0.000869645
-0.000705529
-0.000567285
-0.00045175
-0.000353432
-0.000271187
-0.000198871
-0.00013781
-7.95669e-05
-2.91573e-05
-0.0922746
-0.0916142
-0.0890459
-0.0857161
-0.0823766
-0.0790872
-0.075683
-0.0720886
-0.0683365
-0.0644853
-0.0605763
-0.0566375
-0.0526967
-0.048785
-0.0449344
-0.041175
-0.0375343
-0.0340367
-0.0307032
-0.0275511
-0.0245936
-0.0218397
-0.0192948
-0.0169601
-0.0148339
-0.0129111
-0.0111845
-0.00964455
-0.00828008
-0.00707869
-0.00602727
-0.00511241
-0.00432069
-0.00363898
-0.0030545
-0.00255536
-0.0021303
-0.00176947
-0.00146359
-0.00120511
-0.000986559
-0.00080261
-0.000646981
-0.000516373
-0.000404822
-0.000311135
-0.000228549
-0.000158511
-9.16894e-05
-3.34919e-05
-0.0894698
-0.0889143
-0.0866123
-0.0835559
-0.0804497
-0.0773817
-0.0742093
-0.0708533
-0.0673344
-0.0637061
-0.0600093
-0.0562716
-0.0525187
-0.0487794
-0.0450837
-0.0414609
-0.0379375
-0.0345378
-0.0312829
-0.0281906
-0.0252751
-0.0225467
-0.0200123
-0.017675
-0.0155348
-0.0135885
-0.0118307
-0.0102536
-0.00884778
-0.00760233
-0.00650548
-0.00554502
-0.00470849
-0.00398356
-0.00335805
-0.00282053
-0.00236006
-0.00196697
-0.00163201
-0.00134758
-0.00110603
-0.000901902
-0.000728554
-0.000582554
-0.000457482
-0.000352081
-0.000258986
-0.000179731
-0.000104132
-3.79141e-05
-0.0867345
-0.0862625
-0.0842065
-0.0814151
-0.0785381
-0.0756843
-0.0727338
-0.0696069
-0.0663143
-0.0629032
-0.0594137
-0.055873
-0.0523048
-0.0487357
-0.045194
-0.0417077
-0.0383026
-0.0350025
-0.0318286
-0.028799
-0.0259287
-0.0232294
-0.0207091
-0.0183726
-0.0162216
-0.014255
-0.0124687
-0.0108571
-0.009412
-0.00812426
-0.00698342
-0.00597847
-0.00509795
-0.00433035
-0.00366416
-0.00308844
-0.00259259
-0.00216716
-0.00180294
-0.00149236
-0.00122757
-0.00100299
-0.00081167
-0.000650025
-0.000511201
-0.00039386
-0.000290061
-0.000201386
-0.000116845
-4.24047e-05
-0.0840804
-0.0836718
-0.0818408
-0.079304
-0.0766511
-0.074004
-0.0712651
-0.0683571
-0.0652827
-0.0620823
-0.0587942
-0.0554452
-0.0520576
-0.0486558
-0.0452662
-0.0419155
-0.0386288
-0.0354294
-0.0323381
-0.0293737
-0.0265516
-0.0238844
-0.0213816
-0.0190494
-0.0168911
-0.0149071
-0.0130954
-0.0114517
-0.00996973
-0.00864168
-0.00745852
-0.00641043
-0.00548697
-0.00467751
-0.0039712
-0.00335767
-0.00282667
-0.00236899
-0.00197552
-0.0016387
-0.00135055
-0.00110537
-0.000895912
-0.00071845
-0.000565714
-0.000436266
-0.000321622
-0.000223368
-0.000129767
-4.69409e-05
-0.0815195
-0.0811558
-0.0795287
-0.0772344
-0.074799
-0.0723507
-0.0698126
-0.0671127
-0.064247
-0.0612496
-0.0581562
-0.0549928
-0.0517807
-0.0485422
-0.0453019
-0.0420851
-0.0389161
-0.0358175
-0.0328101
-0.0299125
-0.0271409
-0.0245088
-0.0220265
-0.0197017
-0.0175393
-0.0155412
-0.013707
-0.012034
-0.0105176
-0.00915147
-0.00792787
-0.00683824
-0.00587316
-0.00502288
-0.00427728
-0.00362655
-0.00306083
-0.00257121
-0.00214867
-0.00178571
-0.00147422
-0.00120842
-0.00098077
-0.000787415
-0.000620692
-0.000479045
-0.000353479
-0.000245544
-0.000142821
-5.14949e-05
-0.0790645
-0.0787291
-0.0772847
-0.0752192
-0.0729933
-0.0707353
-0.0683869
-0.0658833
-0.0632159
-0.0604126
-0.0575061
-0.0545213
-0.0514784
-0.0483982
-0.0453033
-0.0422177
-0.0391647
-0.0361664
-0.0332431
-0.0304135
-0.0276942
-0.0250993
-0.0226403
-0.020326
-0.0181624
-0.0161532
-0.0142995
-0.0126002
-0.011052
-0.00965012
-0.00838822
-0.00725889
-0.00625377
-0.00536399
-0.00458018
-0.00389313
-0.00329339
-0.00277235
-0.00232113
-0.0019323
-0.00159768
-0.00131138
-0.00106563
-0.000856418
-0.000675736
-0.000521884
-0.000385403
-0.000267754
-0.000155912
-5.6034e-05
-0.0767287
-0.076407
-0.0751246
-0.0732728
-0.0712467
-0.0691697
-0.0669996
-0.0646799
-0.0621993
-0.0595801
-0.0568515
-0.0540371
-0.0511562
-0.048228
-0.0452736
-0.0423154
-0.0393758
-0.036476
-0.0336362
-0.030875
-0.0282091
-0.0256532
-0.0232196
-0.0209182
-0.0187564
-0.0167391
-0.0148689
-0.013146
-0.0115688
-0.0101338
-0.00883591
-0.00766898
-0.00662567
-0.00569801
-0.00487737
-0.00415515
-0.00352235
-0.00297067
-0.00249141
-0.00207722
-0.00171985
-0.00141335
-0.00114974
-0.000924858
-0.000730366
-0.000564411
-0.000417113
-0.000289803
-0.000168923
-6.05193e-05
-0.0745266
-0.0742064
-0.0730655
-0.0714109
-0.0695736
-0.0676673
-0.0656635
-0.0635145
-0.0612082
-0.0587618
-0.0562009
-0.0535477
-0.0508204
-0.0480368
-0.0452167
-0.0423809
-0.0395507
-0.0367469
-0.033989
-0.0312954
-0.0286832
-0.0261673
-0.0237609
-0.0214747
-0.0193171
-0.0172944
-0.0154105
-0.013667
-0.0120636
-0.0105981
-0.00926686
-0.0080647
-0.00698534
-0.00602172
-0.00516594
-0.00441001
-0.00374542
-0.00316418
-0.00265778
-0.00221898
-0.00183948
-0.0015133
-0.00123224
-0.000992024
-0.000784013
-0.000606181
-0.00044828
-0.00031146
-0.000181718
-6.49048e-05
-0.0724739
-0.0721448
-0.0711259
-0.0696511
-0.0679899
-0.0662429
-0.0643927
-0.0624007
-0.060255
-0.0579689
-0.0555645
-0.0530619
-0.0504784
-0.0478308
-0.0451373
-0.0424176
-0.0396919
-0.03698
-0.0343013
-0.0316738
-0.0291145
-0.0266389
-0.0242606
-0.0219911
-0.0198399
-0.0178143
-0.0159194
-0.0141581
-0.0125314
-0.0110384
-0.00967655
-0.00844177
-0.00732881
-0.00633145
-0.00544257
-0.00465476
-0.00395996
-0.00335056
-0.00281823
-0.00235584
-0.0019551
-0.00160997