/*--------------------------------*- C++ -*----------------------------------*\
  =========                 |
  \\      /  F ield         | OpenFOAM: The Open Source CFD Toolbox
   \\    /   O peration     | Website:  https://openfoam.org
    \\  /    A nd           | Version:  7
     \\/     M anipulation  |
\*---------------------------------------------------------------------------*/
FoamFile
{
    version     2.0;
    format      ascii;
    class       volVectorField;
    location    "5";
    object      U;
}
// * * * * * * * * * * * * * * * * * * * * * * * * * * * * * * * * * * * * * //

dimensions      [0 1 -1 0 0 0 0];

internalField   nonuniform List<vector> 
6050
(
(-0.493331 0.0111653 5.07663e-20)
(-0.533938 0.00871331 -7.17326e-20)
(-0.561347 0.00533362 4.23054e-20)
(-0.572816 0.000946041 2.21756e-20)
(-0.565491 -0.00445613 7.57976e-21)
(-0.537099 -0.0107256 -2.23442e-20)
(-0.486677 -0.01774 -1.08746e-20)
(-0.414886 -0.0246882 -5.95272e-21)
(-0.324163 -0.0308927 1.98385e-20)
(-0.220028 -0.0355527 -1.52326e-20)
(-0.103658 -0.0388313 -9.84382e-22)
(0.00945514 -0.0390694 7.52243e-22)
(0.129562 -0.0404825 -3.30421e-22)
(-0.470857 0.0330981 -2.22222e-19)
(-0.50555 0.0257828 1.39689e-19)
(-0.526444 0.015734 -1.10874e-19)
(-0.530964 0.0027206 1.43505e-20)
(-0.516458 -0.0133009 -6.08642e-20)
(-0.481065 -0.0319312 1.96812e-20)
(-0.423959 -0.0525206 3.43658e-20)
(-0.346019 -0.0729514 4.98853e-20)
(-0.249969 -0.0911145 2.45486e-20)
(-0.142517 -0.104671 4.74963e-20)
(-0.0230897 -0.11364 1.87236e-21)
(0.0879374 -0.114348 -1.15015e-20)
(0.21149 -0.117446 -1.61766e-21)
(-0.427586 0.0538896 1.79142e-20)
(-0.451219 0.0418393 -5.36609e-20)
(-0.460128 0.0254032 1.09567e-19)
(-0.452143 0.00423476 -3.33083e-20)
(-0.425067 -0.0217696 3.64036e-20)
(-0.377703 -0.052059 -3.7947e-20)
(-0.309625 -0.0851369 -6.22825e-20)
(-0.222268 -0.117977 -5.41631e-20)
(-0.118636 -0.146697 -5.51754e-20)
(-0.00718189 -0.168052 -8.00186e-20)
(0.114903 -0.180815 1.5221e-20)
(0.220703 -0.181829 5.48542e-21)
(0.345752 -0.18404 6.29479e-21)
(-0.366547 0.0728866 -1.66778e-20)
(-0.375254 0.0563395 -5.05896e-21)
(-0.368354 0.0340076 -3.23603e-19)
(-0.344342 0.00550885 -1.52797e-19)
(-0.301753 -0.0291918 7.0607e-20)
(-0.240072 -0.0700132 6.35585e-21)
(-0.159578 -0.114109 6.12868e-20)
(-0.0624312 -0.157826 -1.44169e-19)
(0.0477103 -0.194586 4.70334e-20)
(0.161271 -0.222327 5.38457e-20)
(0.281926 -0.237057 3.21952e-20)
(0.379043 -0.237983 -1.33712e-20)
(0.498504 -0.236635 -7.38621e-21)
(-0.291659 0.0895441 -1.30353e-20)
(-0.283054 0.0688473 -6.55785e-21)
(-0.25829 0.0412885 6.37985e-20)
(-0.216631 0.00644889 9.53887e-20)
(-0.157798 -0.035791 -2.57401e-19)
(-0.0816336 -0.0851913 2.98943e-19)
(0.0109435 -0.138266 1.48085e-19)
(0.116945 -0.190515 1.76088e-19)
(0.2312 -0.233185 -2.28512e-21)
(0.34316 -0.26531 -2.63329e-20)
(0.456794 -0.280133 6.52201e-21)
(0.54219 -0.280456 -1.20361e-20)
(0.647956 -0.273572 -1.96124e-20)
(-0.180426 0.0790077 2.45079e-20)
(-0.13744 0.0470024 6.78768e-20)
(-0.0784416 0.00696476 5.54317e-19)
(-0.00388914 -0.0415294 -6.32442e-21)
(0.0860184 -0.0973979 1.81016e-19)
(0.189595 -0.157173 -3.93042e-19)
(0.302445 -0.2154 5.01473e-20)
(0.417823 -0.26203 -4.76776e-20)
(0.52463 -0.296112 -2.59316e-20)
(0.625882 -0.309035 2.79243e-20)
(0.696562 -0.308182 -3.89487e-20)
(0.782351 -0.294937 1.59541e-20)
(-0.0730239 0.0865188 -3.53565e-19)
(-0.0127239 0.0508343 4.35657e-20)
(0.0621818 0.00668983 -1.12873e-19)
(0.150961 -0.0462889 1.77808e-19)
(0.253393 -0.107078 1.61545e-21)
(0.366729 -0.171417 -1.36621e-19)
(0.484481 -0.233342 3.2613e-19)
(0.597691 -0.281134 -1.0882e-19)
(0.695342 -0.314642 -6.74132e-20)
(0.779798 -0.324138 8.79665e-20)
(0.833124 -0.321587 1.97092e-20)
(0.895427 -0.302343 6.63758e-20)
(0.0341075 0.0910617 1.07662e-18)
(0.109942 0.0524129 1.50555e-20)
(0.199001 0.00509053 -7.16199e-19)
(0.300718 -0.051115 -7.74064e-20)
(0.414777 -0.115342 -6.55446e-19)
(0.536705 -0.18213 2.81891e-19)
(0.65673 -0.244882 -1.87974e-19)
(0.763809 -0.290981 1.66255e-19)
(0.847928 -0.321598 1.76523e-19)
(0.91236 -0.326743 4.93107e-20)
(0.946663 -0.32233 -1.07061e-19)
(0.985032 -0.298409 -5.03119e-20)
(0.137019 0.0923446 -8.78445e-19)
(0.226553 0.0513932 -2.57421e-19)
(0.328495 0.00170336 1.66421e-19)
(0.442826 -0.0568639 2.96979e-19)
(0.568262 -0.122943 -8.08976e-20)
(0.696951 -0.189756 3.12967e-19)
(0.815198 -0.250247 1.39222e-20)
(0.911206 -0.292057 -2.55307e-19)
(0.977566 -0.318087 -2.18679e-21)
(1.02028 -0.318761 -2.13353e-19)
(1.03552 -0.312908 3.19115e-20)
(1.05229 -0.286179 -5.52982e-20)
(0.233353 0.0901718 4.09038e-19)
(0.335611 0.0474525 -3.39479e-19)
(0.4506 -0.00396005 5.38569e-19)
(0.578337 -0.0638285 5.15935e-19)
(0.714465 -0.129728 6.29152e-19)
(0.846051 -0.193829 -5.64223e-19)
(0.956564 -0.249169 5.80984e-20)
(1.03607 -0.284887 3.55787e-19)
(1.08163 -0.30566 -1.25398e-19)
(1.10294 -0.302584 -3.22768e-21)
(1.10104 -0.296231 -5.96499e-21)
(1.10046 -0.268603 5.88594e-20)
(0.323 0.084439 -4.34879e-19)
(0.438707 0.0404918 -6.76372e-20)
(0.568489 -0.0117612 -2.34657e-19)
(0.710245 -0.0713382 -1.58601e-19)
(0.853894 -0.134533 -3.51167e-19)
(0.981559 -0.193277 -1.53184e-19)
(1.07722 -0.241421 5.55717e-20)
(1.13577 -0.270485 -2.20166e-19)
(1.1598 -0.2864 2.28418e-20)
(1.16222 -0.28089 6.68924e-21)
(1.14672 -0.275141 -9.599e-20)
(1.13381 -0.24815 4.41402e-20)
(0.540307 0.0310396 -2.24735e-19)
(0.686761 -0.0206095 7.25019e-19)
(0.840386 -0.077725 -8.06887e-19)
(0.984405 -0.135676 -6.86462e-19)
(1.09929 -0.187231 8.81594e-19)
(1.17393 -0.227481 -1.72033e-19)
(1.2097 -0.250566 8.2499e-20)
(1.21427 -0.262728 1.00726e-19)
(1.20195 -0.256261 -5.32438e-20)
(1.17712 -0.251992 1.40066e-19)
(1.15652 -0.226612 1.42945e-19)
(0.645955 0.0205262 3.62393e-19)
(0.808136 -0.0285196 -4.11859e-19)
(0.966642 -0.0809286 -1.5571e-19)
(1.10081 -0.1319 5.36517e-19)
(1.1948 -0.175766 -6.33909e-19)
(1.24541 -0.208735 -4.07606e-20)
(1.25991 -0.227284 2.00272e-19)
(1.24921 -0.236951 -6.79786e-20)
(1.22686 -0.230786 -7.08353e-20)
(1.19669 -0.228429 1.02197e-20)
(1.17202 -0.205132 -7.43123e-20)
(0.758966 0.0111593 -7.27578e-19)
(0.930528 -0.0333002 4.28346e-19)
(1.08283 -0.07952 2.57623e-19)
(1.19722 -0.123124 -2.96285e-19)
(1.26581 -0.160025 4.34582e-19)
(1.29334 -0.187102 2.90266e-19)
(1.29064 -0.202703 -7.66028e-20)
(1.26962 -0.210858 -1.01262e-20)
(1.24144 -0.205891 -2.15305e-20)
(1.20908 -0.205417 -2.14839e-19)
(1.18276 -0.184365 -2.44856e-19)
(0.877452 0.0051565 3.05925e-19)
(1.04703 -0.0335738 -2.51712e-19)
(1.18164 -0.0733836 1.69319e-19)
(1.27011 -0.110416 1.36352e-19)
(1.31346 -0.141715 -8.81313e-20)
(1.32185 -0.164434 2.0749e-19)
(1.30703 -0.178367 -1.90354e-19)
(1.28015 -0.185586 2.23246e-19)
(1.24928 -0.182389 3.57229e-19)
(1.21686 -0.183418 1.45134e-19)
(1.19035 -0.164669 2.05576e-19)
(1.14922 -0.0293358 2.49533e-20)
(1.25834 -0.0635597 9.10573e-20)
(1.31989 -0.0953704 -1.46809e-19)
(1.34167 -0.122449 -3.39639e-19)
(1.33607 -0.142109 -7.20929e-21)
(1.3138 -0.155182 3.36321e-19)
(1.28439 -0.161729 -2.48617e-19)
(1.25284 -0.160655 -4.94999e-19)
(1.22172 -0.162559 -3.20708e-19)
(1.19574 -0.146223 1.18123e-19)
(1.23118 -0.0216592 -6.63512e-19)
(1.31239 -0.0515335 4.87574e-19)
(1.35005 -0.0794357 5.30924e-20)
(1.35546 -0.103387 1.41536e-19)
(1.3407 -0.120942 -2.93197e-19)
(1.31463 -0.133538 -7.99579e-20)
(1.28477 -0.139542 -6.91607e-20)
(1.25375 -0.140783 5.60766e-20)
(1.22465 -0.14274 1.99425e-19)
(1.1994 -0.129113 -3.53117e-19)
(1.3467 -0.0386032 -2.29347e-19)
(1.3654 -0.0636092 5.86292e-20)
(1.3595 -0.0852012 -3.16551e-19)
(1.33941 -0.101299 -2.99227e-20)
(1.312 -0.1135 4.82951e-20)
(1.28285 -0.119126 -3.71805e-20)
(1.25304 -0.122647 4.24346e-19)
(1.22617 -0.123704 1.59177e-20)
(1.20152 -0.113462 3.52207e-19)
(1.36566 -0.0256356 -8.72578e-20)
(1.37052 -0.0484449 -2.72261e-19)
(1.35745 -0.0682014 -4.60413e-19)
(1.33474 -0.0832508 -6.78525e-21)
(1.3075 -0.0949914 -1.75338e-19)
(1.27957 -0.10052 1.40155e-19)
(1.25139 -0.105905 -6.98293e-20)
(1.2265 -0.105223 -4.49623e-19)
(1.20226 -0.0996334 -1.55666e-19)
(1.36909 -0.0341831 4.12036e-19)
(1.35188 -0.0524689 5.84627e-19)
(1.3283 -0.0667041 -8.51992e-20)
(1.30202 -0.0779278 1.21672e-19)
(1.27554 -0.0836733 -3.83331e-20)
(1.24922 -0.0900599 2.3017e-19)
(1.22578 -0.0875533 1.01272e-19)
(1.2019 -0.0884343 1.04003e-19)
(1.36374 -0.0208735 4.37115e-20)
(1.34445 -0.0379509 1.54949e-19)
(1.32104 -0.0515029 -2.92139e-20)
(1.29605 -0.0622428 2.42091e-19)
(1.27113 -0.0683663 2.14603e-20)
(1.24674 -0.0747726 -5.34512e-19)
(1.22436 -0.0718945 2.13078e-19)
(1.20042 -0.0812013 -1.90302e-19)
(1.33617 -0.0245215 -5.86445e-20)
(1.31346 -0.0374875 -5.70116e-20)
(1.28987 -0.0478401 -3.83745e-20)
(1.26651 -0.0542691 2.24761e-19)
(1.24382 -0.0603377 1.51321e-19)
(1.22228 -0.0596655 4.17101e-20)
(1.20237 -0.0653465 1.08177e-19)
(1.32759 -0.0120759 -6.14672e-20)
(1.30584 -0.0245493 -2.17632e-20)
(1.28361 -0.0345906 1.99125e-19)
(1.26172 -0.0411998 -9.82775e-20)
(1.24043 -0.047488 -1.07564e-19)
(1.22067 -0.0469922 -2.15939e-19)
(1.20107 -0.0541852 -1.34419e-19)
(1.29827 -0.0125573 6.66679e-21)
(1.27734 -0.0223412 -2.56401e-19)
(1.25674 -0.029244 5.97888e-20)
(1.23694 -0.0353279 -1.07557e-19)
(1.21797 -0.0362972 -3.74943e-19)
(1.20047 -0.0431354 1.90241e-19)
(1.27105 -0.0110341 1.38848e-19)
(1.25169 -0.018113 -3.17928e-20)
(1.23298 -0.0243807 3.6216e-19)
(1.21534 -0.0260407 3.22378e-19)
(1.19871 -0.0327575 1.21658e-19)
(1.24646 -0.00786836 -1.07776e-20)
(1.22891 -0.0141547 -2.47544e-19)
(1.21211 -0.0167052 -8.91896e-20)
(1.19665 -0.0234173 -1.19907e-19)
(1.22452 -0.004769 -1.79255e-20)
(1.20871 -0.00804417 2.16923e-19)
(1.19409 -0.0145829 2.22367e-19)
(1.20496 -7.99123e-06 -1.28863e-19)
(1.19115 -0.00655495 -4.59351e-20)
(1.20496 7.96931e-06 -4.48118e-20)
(1.19115 0.00655494 -3.12579e-19)
(1.22452 0.00476897 1.13359e-19)
(1.20871 0.00804415 2.33564e-19)
(1.19409 0.0145828 1.20544e-19)
(1.24646 0.00786833 1.56506e-19)
(1.22891 0.0141546 -1.20777e-19)
(1.21211 0.0167052 -1.89824e-19)
(1.19665 0.0234173 2.74659e-20)
(1.27105 0.0110341 -3.53411e-19)
(1.25169 0.0181129 -4.72332e-21)
(1.23298 0.0243806 4.05318e-19)
(1.21534 0.0260406 1.55518e-19)
(1.19871 0.0327575 1.27526e-19)
(1.29827 0.0125572 -8.759e-20)
(1.27734 0.0223411 5.53879e-20)
(1.25674 0.0292439 -4.82237e-20)
(1.23694 0.0353279 4.1494e-20)
(1.21797 0.0362972 -2.43471e-19)
(1.20047 0.0431354 1.14177e-19)
(1.32759 0.0120759 6.6679e-21)
(1.30584 0.0245493 1.70267e-19)
(1.28361 0.0345905 7.35732e-20)
(1.26172 0.0411997 -1.74238e-19)
(1.24043 0.047488 -3.26954e-20)
(1.22067 0.0469922 -1.69048e-20)
(1.20107 0.0541852 -2.24658e-19)
(1.33617 0.0245215 -2.62653e-20)
(1.31346 0.0374874 8.42361e-21)
(1.28987 0.0478401 -1.07614e-19)
(1.26651 0.054269 8.96838e-20)
(1.24382 0.0603377 6.58155e-20)
(1.22228 0.0596654 4.83873e-21)
(1.20237 0.0653465 1.68345e-19)
(1.36374 0.0208734 -2.41351e-19)
(1.34445 0.0379509 -3.48884e-19)
(1.32104 0.0515028 2.62742e-19)
(1.29605 0.0622427 1.56663e-19)
(1.27113 0.0683663 -6.31472e-20)
(1.24674 0.0747726 -4.91937e-19)
(1.22436 0.0718944 5.22341e-20)
(1.20042 0.0812013 2.38751e-20)
(1.36909 0.034183 4.6437e-19)
(1.35188 0.0524688 4.61889e-19)
(1.3283 0.066704 -1.4674e-19)
(1.30202 0.0779277 3.3037e-20)
(1.27554 0.0836733 8.99694e-20)
(1.24922 0.0900598 7.84214e-20)
(1.22578 0.0875533 2.13747e-19)
(1.2019 0.0884343 6.86296e-20)
(1.36566 0.0256355 -1.38921e-19)
(1.37052 0.0484448 -2.12511e-19)
(1.35745 0.0682013 -3.17669e-19)
(1.33474 0.0832507 6.55316e-20)
(1.3075 0.0949913 -2.53827e-19)
(1.27957 0.10052 -7.19258e-21)
(1.25139 0.105905 -1.59468e-19)
(1.2265 0.105223 -2.05256e-19)
(1.20226 0.0996334 -1.23608e-19)
(1.3467 0.0386031 9.73936e-20)
(1.3654 0.0636091 -1.26016e-19)
(1.3595 0.0852012 -2.67415e-19)
(1.33941 0.101299 -1.52367e-19)
(1.312 0.113499 2.197e-19)
(1.28285 0.119126 -1.23957e-19)
(1.25304 0.122647 5.09815e-19)
(1.22617 0.123704 2.29184e-19)
(1.20152 0.113462 2.81853e-20)
(1.23118 0.021659 8.58738e-20)
(1.31239 0.0515334 -4.0454e-20)
(1.35005 0.0794356 -1.24921e-19)
(1.35546 0.103387 6.24289e-19)
(1.3407 0.120942 -3.79407e-19)
(1.31463 0.133538 -3.08658e-19)
(1.28477 0.139542 6.34362e-20)
(1.25375 0.140783 4.65182e-20)
(1.22465 0.14274 5.03231e-19)
(1.1994 0.129113 -4.44615e-19)
(1.14922 0.0293357 3.51045e-19)
(1.25833 0.0635595 3.64104e-20)
(1.31989 0.0953702 -8.50937e-20)
(1.34167 0.122449 -2.50609e-19)
(1.33607 0.142109 7.62332e-20)
(1.31381 0.155182 1.54282e-19)
(1.28439 0.161729 -2.1239e-19)
(1.25284 0.160655 -4.43469e-19)
(1.22172 0.162559 -2.2608e-19)
(1.19574 0.146223 9.21019e-20)
(0.877452 -0.00515662 1.34538e-18)
(1.04703 0.0335737 -5.93262e-19)
(1.18164 0.0733835 3.64551e-20)
(1.27011 0.110416 3.92686e-19)
(1.31346 0.141715 2.70734e-19)
(1.32185 0.164434 -1.79652e-19)
(1.30703 0.178367 6.16164e-20)
(1.28015 0.185586 1.66413e-19)
(1.24928 0.182389 1.11856e-19)
(1.21686 0.183418 1.91749e-19)
(1.19035 0.164669 3.63337e-19)
(0.758966 -0.0111594 -8.35487e-19)
(0.930528 0.0333001 5.21365e-19)
(1.08283 0.0795199 3.52074e-19)
(1.19722 0.123124 -6.55228e-19)
(1.26581 0.160025 8.43023e-19)
(1.29334 0.187101 -6.6306e-20)
(1.29064 0.202703 -1.16331e-19)
(1.26962 0.210858 -6.02841e-20)
(1.24144 0.205891 -1.15562e-20)
(1.20908 0.205417 -2.7565e-20)
(1.18276 0.184365 -1.43123e-19)
(0.645955 -0.0205263 3.21802e-19)
(0.808136 0.0285194 -3.94611e-19)
(0.966642 0.0809284 -1.82602e-19)
(1.10081 0.1319 5.52817e-19)
(1.1948 0.175765 -8.32969e-19)
(1.24541 0.208735 -6.35276e-21)
(1.25991 0.227284 2.76712e-19)
(1.24921 0.236951 -1.47636e-19)
(1.22686 0.230786 9.86924e-20)
(1.19669 0.228429 -1.79303e-19)
(1.17202 0.205132 -1.14526e-19)
(0.540307 -0.0310397 1.62773e-19)
(0.686761 0.0206093 4.28391e-19)
(0.840386 0.0777248 -6.5478e-19)
(0.984405 0.135675 -6.57281e-19)
(1.09929 0.187231 7.8785e-19)
(1.17393 0.227481 -1.65777e-19)
(1.2097 0.250565 2.18512e-19)
(1.21427 0.262728 1.42962e-19)
(1.20195 0.256261 -2.0268e-19)
(1.17712 0.251992 1.58018e-19)
(1.15652 0.226612 1.03692e-19)
(0.323 -0.0844392 6.20546e-19)
(0.438707 -0.040492 1.98844e-19)
(0.568489 0.011761 -8.73043e-19)
(0.710245 0.071338 1.58393e-19)
(0.853894 0.134533 -4.92702e-19)
(0.981559 0.193277 -3.24842e-20)
(1.07722 0.241421 1.61847e-19)
(1.13577 0.270485 -2.77204e-19)
(1.1598 0.2864 -6.10331e-20)
(1.16222 0.28089 -4.07778e-20)
(1.14672 0.275141 1.66907e-20)
(1.13381 0.24815 -2.84052e-20)
(0.233353 -0.0901719 3.92547e-19)
(0.335611 -0.0474527 -2.09016e-19)
(0.4506 0.00395985 7.82328e-19)
(0.578336 0.0638282 -9.31771e-20)
(0.714465 0.129728 6.78141e-19)
(0.846051 0.193829 -1.55209e-19)
(0.956564 0.249168 8.75305e-20)
(1.03607 0.284887 -1.07389e-19)
(1.08163 0.30566 1.1486e-19)
(1.10294 0.302584 4.77754e-20)
(1.10104 0.296231 1.93452e-20)
(1.10046 0.268603 -4.10172e-20)
(0.137019 -0.0923448 -1.09468e-18)
(0.226553 -0.0513934 -1.35705e-19)
(0.328495 -0.00170356 1.94049e-19)
(0.442826 0.0568637 2.87223e-19)
(0.568262 0.122943 2.9565e-19)
(0.696951 0.189756 3.71793e-20)
(0.815198 0.250247 -2.73367e-20)
(0.911206 0.292057 -3.71598e-19)
(0.977566 0.318087 -2.78625e-20)
(1.02028 0.318761 5.56786e-20)
(1.03552 0.312908 -8.922e-20)
(1.05229 0.286179 -1.00323e-19)
(0.0341073 -0.0910618 7.52069e-19)
(0.109942 -0.0524131 -1.06722e-19)
(0.199001 -0.00509074 -5.54143e-19)
(0.300718 0.0511147 -4.17765e-19)
(0.414777 0.115342 -1.35508e-19)
(0.536705 0.18213 -1.37212e-19)
(0.65673 0.244882 1.0492e-19)
(0.763809 0.290981 1.13772e-19)
(0.847928 0.321598 1.29861e-19)
(0.91236 0.326743 6.83752e-21)
(0.946663 0.32233 1.20256e-20)
(0.985032 0.298409 -7.00829e-20)
(-0.0730241 -0.086519 -4.53737e-19)
(-0.012724 -0.0508345 3.00079e-19)
(0.0621817 -0.00669005 -1.09682e-19)
(0.150961 0.0462887 2.13551e-19)
(0.253393 0.107078 -4.16778e-20)
(0.366729 0.171417 -5.6424e-20)
(0.484481 0.233342 1.41646e-19)
(0.597691 0.281134 -1.02535e-19)
(0.695342 0.314642 7.51287e-20)
(0.779798 0.324138 1.8845e-21)
(0.833124 0.321588 3.06748e-20)
(0.895427 0.302343 1.05705e-19)
(-0.180427 -0.0790079 9.1476e-20)
(-0.137441 -0.0470026 1.80396e-19)
(-0.0784418 -0.006965 4.29926e-19)
(-0.00388929 0.0415292 -1.27291e-19)
(0.0860183 0.0973976 1.47031e-19)
(0.189595 0.157172 -1.61735e-19)
(0.302445 0.2154 -1.40242e-19)
(0.417823 0.26203 1.46441e-19)
(0.52463 0.296112 -3.58262e-20)
(0.625882 0.309035 -9.27341e-20)
(0.696562 0.308182 3.99437e-20)
(0.782351 0.294937 -2.85954e-20)
(-0.291659 -0.0895441 2.98279e-19)
(-0.283054 -0.0688475 -4.66191e-20)
(-0.258291 -0.0412887 1.4934e-20)
(-0.216631 -0.00644913 -5.91672e-20)
(-0.157798 0.0357907 -6.873e-21)
(-0.0816337 0.085191 2.38235e-19)
(0.0109434 0.138266 2.42603e-19)
(0.116944 0.190514 2.32928e-20)
(0.2312 0.233185 7.47755e-20)
(0.34316 0.26531 -1.10243e-19)
(0.456794 0.280133 9.96865e-20)
(0.54219 0.280456 -7.03162e-20)
(0.647956 0.273572 -1.17284e-20)
(-0.366548 -0.0728867 4.03472e-20)
(-0.375254 -0.0563396 -8.53112e-20)
(-0.368354 -0.0340078 -1.52476e-19)
(-0.344342 -0.00550911 -2.38372e-19)
(-0.301753 0.0291915 1.26857e-19)
(-0.240072 0.0700129 -3.25959e-20)
(-0.159578 0.114108 1.3568e-19)
(-0.0624313 0.157826 -2.05046e-19)
(0.0477103 0.194586 6.82685e-20)
(0.161271 0.222327 5.45826e-20)
(0.281926 0.237057 -3.7604e-20)
(0.379044 0.237983 2.69298e-20)
(0.498504 0.236635 -9.7885e-21)
(-0.427586 -0.0538897 -1.77547e-20)
(-0.451219 -0.0418395 -9.85274e-20)
(-0.460129 -0.0254034 4.45053e-20)
(-0.452143 -0.00423503 5.14365e-20)
(-0.425067 0.0217693 7.59558e-20)
(-0.377703 0.0520587 -9.33064e-20)
(-0.309625 0.0851366 -3.87161e-20)
(-0.222268 0.117976 5.40656e-21)
(-0.118636 0.146697 -1.23718e-19)
(-0.00718186 0.168052 -4.29921e-20)
(0.114903 0.180815 -1.44194e-20)
(0.220703 0.181829 2.71736e-20)
(0.345752 0.184041 4.08941e-21)
(-0.470857 -0.0330982 -1.91838e-19)
(-0.50555 -0.0257829 1.3689e-19)
(-0.526444 -0.0157343 -1.13049e-19)
(-0.530964 -0.00272087 6.3438e-20)
(-0.516458 0.0133006 -8.5876e-20)
(-0.481065 0.0319309 -1.33286e-20)
(-0.423959 0.0525203 2.13544e-20)
(-0.346019 0.0729511 6.51876e-20)
(-0.249969 0.0911143 3.035e-20)
(-0.142517 0.104671 5.51165e-20)
(-0.0230896 0.11364 -1.07888e-20)
(0.0879375 0.114348 -6.39227e-21)
(0.21149 0.117446 7.84508e-22)
(-0.493331 -0.0111654 5.41236e-20)
(-0.533938 -0.00871346 -6.08069e-20)
(-0.561347 -0.00533384 2.38946e-20)
(-0.572816 -0.000946322 4.82022e-20)
(-0.565491 0.0044558 -2.1398e-20)
(-0.537099 0.0107252 3.80376e-21)
(-0.486677 0.0177397 -2.53343e-20)
(-0.414886 0.0246879 -4.69038e-21)
(-0.324163 0.0308924 1.61448e-20)
(-0.220028 0.0355525 -7.40566e-21)
(-0.103658 0.0388312 -6.00164e-21)
(0.00945517 0.0390694 -7.47467e-22)
(0.129562 0.0404826 1.19003e-21)
(0.208566 -0.0370276 1.75631e-21)
(0.258572 -0.0346209 -8.94276e-22)
(0.306153 -0.032362 1.91575e-21)
(0.351892 -0.0302272 -3.63053e-21)
(0.395975 -0.0281539 1.84307e-21)
(0.43831 -0.0261306 1.18752e-21)
(0.478784 -0.0241771 -1.65511e-21)
(0.517348 -0.0223153 5.55833e-22)
(0.554006 -0.0205571 -1.31555e-21)
(0.588786 -0.0189046 -3.17443e-22)
(0.621729 -0.0173587 2.50173e-21)
(0.652886 -0.0159206 -7.36506e-23)
(0.682321 -0.0145898 -1.56087e-21)
(0.710109 -0.0133633 -1.0288e-21)
(0.73633 -0.0122357 -7.10203e-23)
(0.761067 -0.0111996 2.54976e-21)
(0.784396 -0.010246 -2.04424e-22)
(0.806385 -0.00936437 -1.10012e-21)
(0.827087 -0.00854305 5.11726e-22)
(0.846533 -0.00776971 -7.93887e-22)
(0.864734 -0.00703245 1.01704e-21)
(0.881674 -0.00632117 4.07362e-22)
(0.897317 -0.00562924 -6.82996e-22)
(0.911613 -0.00495485 5.1889e-22)
(0.924514 -0.00430159 -6.18634e-22)
(0.935987 -0.00367782 6.80429e-23)
(0.946031 -0.00309498 2.04276e-22)
(0.954686 -0.00256504 -6.76824e-23)
(0.962037 -0.0020977 -1.82707e-23)
(0.968206 -0.00169802 7.56739e-24)
(0.973339 -0.0013657 5.1893e-23)
(0.977593 -0.00109574 -4.94397e-23)
(0.981114 -0.000880406 -1.49884e-22)
(0.984033 -0.000710389 4.80672e-23)
(0.986465 -0.000576659 7.09897e-24)
(0.988523 -0.000471841 1.28332e-23)
(0.990271 -0.000389242 -2.16062e-23)
(0.991772 -0.000322793 4.98837e-24)
(0.993053 -0.000268734 4.76073e-24)
(0.994167 -0.000223597 -1.40267e-23)
(0.995106 -0.000186205 -5.76835e-24)
(0.995936 -0.000154243 1.13997e-23)
(0.996613 -0.00012817 -6.25983e-24)
(0.997236 -0.00010543 -7.83536e-24)
(0.997705 -8.78417e-05 2.7989e-24)
(0.998189 -7.1675e-05 -2.74357e-24)
(0.998488 -6.07149e-05 -4.52408e-24)
(0.998897 -4.89529e-05 -2.43806e-24)
(0.999046 -4.35462e-05 -3.98995e-25)
(0.999452 -3.42866e-05 4.68414e-28)
(0.283676 -0.107465 4.04049e-21)
(0.328906 -0.100521 2.39947e-21)
(0.371646 -0.0939937 -8.56583e-21)
(0.412809 -0.0877956 7.45876e-21)
(0.452569 -0.0817562 -4.85308e-23)
(0.490753 -0.0758544 -5.33175e-21)
(0.527214 -0.0701543 4.58395e-21)
(0.561912 -0.0647204 -2.60302e-21)
(0.594869 -0.0595899 -3.54702e-21)
(0.62612 -0.054774 4.9753e-21)
(0.655702 -0.0502742 -9.13109e-21)
(0.683661 -0.046092 6.57654e-21)
(0.710058 -0.0422255 5.07864e-21)
(0.734966 -0.038666 -4.50293e-21)
(0.758462 -0.0353976 -8.8831e-22)
(0.780624 -0.0323987 1.96003e-21)
(0.801528 -0.0296429 1.39199e-21)
(0.821242 -0.0270997 -4.08809e-22)
(0.839819 -0.0247349 -2.24865e-21)
(0.857298 -0.0225125 2.1312e-21)
(0.873695 -0.020397 3.95295e-22)
(0.889004 -0.018358 -2.05704e-21)
(0.903196 -0.0163747 1.59687e-21)
(0.916229 -0.0144402 -1.47924e-21)
(0.928056 -0.0125632 6.27778e-22)
(0.938642 -0.0107668 6.20328e-22)
(0.947974 -0.00908351 -1.11028e-21)
(0.956077 -0.00754813 2.94599e-22)
(0.963014 -0.00618952 -1.13257e-22)
(0.968882 -0.00502352 2.6384e-22)
(0.973804 -0.00405056 2.19064e-23)
(0.977912 -0.00325736 6.90904e-23)
(0.981336 -0.00262243 -1.32711e-22)
(0.984191 -0.00211946 2.11114e-22)
(0.98658 -0.00172259 8.52963e-23)
(0.988609 -0.0014108 -1.77726e-22)
(0.990336 -0.00116461 1.15125e-22)
(0.991823 -0.000966235 -4.99745e-23)
(0.993093 -0.000804662 -1.74813e-24)
(0.994199 -0.000669645 -4.36643e-24)
(0.995132 -0.000557734 5.29192e-23)
(0.995957 -0.000462038 -3.24163e-23)
(0.99663 -0.000383955 3.3554e-23)
(0.99725 -0.00031584 -2.26414e-23)
(0.997716 -0.000263151 -1.02494e-23)
(0.998197 -0.000214714 4.98168e-24)
(0.998496 -0.000181878 2.70611e-24)
(0.998903 -0.000146635 6.62304e-25)
(0.99905 -0.000130436 2.69918e-24)
(0.999455 -0.000102695 3.19967e-25)
(0.406837 -0.168594 2.4085e-21)
(0.444127 -0.157865 -4.18852e-21)
(0.478832 -0.147712 -1.93164e-21)
(0.512445 -0.137986 8.69067e-21)
(0.545114 -0.128457 -3.6653e-21)
(0.57652 -0.119126 2.54273e-21)
(0.606456 -0.110108 8.07674e-22)
(0.63489 -0.101507 -3.33521e-21)
(0.661865 -0.0933803 -2.70088e-21)
(0.687428 -0.0857582 -2.49856e-21)
(0.711608 -0.0786488 1.21747e-20)
(0.734439 -0.0720515 -1.34004e-20)
(0.755968 -0.0659608 1.34613e-20)
(0.776259 -0.0603625 -4.16284e-21)
(0.79538 -0.0552318 -7.26984e-21)
(0.813401 -0.0505352 7.61265e-21)
(0.83039 -0.0462315 -1.90403e-21)
(0.846411 -0.0422731 2.8344e-21)
(0.861523 -0.0386064 -6.97996e-21)
(0.875769 -0.0351743 8.1221e-22)
(0.889179 -0.0319194 9.79165e-22)
(0.901762 -0.0287907 -5.98844e-22)
(0.913508 -0.0257512 1.66553e-21)
(0.92439 -0.0227849 -3.97513e-22)
(0.934371 -0.0199003 -6.69525e-22)
(0.943415 -0.017129 1.62214e-21)
(0.9515 -0.0145193 -4.59966e-22)
(0.958625 -0.0121252 4.3334e-22)
(0.96482 -0.00999329 -4.82729e-22)
(0.970145 -0.00815158 1.04976e-21)
(0.97468 -0.00660433 3.91004e-22)
(0.978521 -0.00533423 -9.35314e-22)
(0.981764 -0.00431075 2.45265e-22)
(0.984498 -0.00349484 -2.04308e-22)
(0.986806 -0.00284712 1.97489e-22)
(0.988778 -0.00233595 4.77742e-23)
(0.990466 -0.0019308 -2.46035e-22)
(0.991925 -0.00160331 1.51238e-22)
(0.993174 -0.001336 -3.4691e-23)
(0.994263 -0.00111226 1.68435e-23)
(0.995184 -0.000926625 -1.54862e-23)
(0.995999 -0.000767761 -7.45192e-23)
(0.996664 -0.000638081 -4.17638e-23)
(0.997277 -0.000524902 2.52679e-23)
(0.997739 -0.000437345 4.86932e-24)
(0.998215 -0.000356826 4.32543e-24)
(0.99851 -0.000302245 2.97712e-24)
(0.998913 -0.000243652 3.03617e-24)
(0.99906 -0.000216726 5.03525e-24)
(0.99946 -0.000170615 1.38596e-25)
(0.546275 -0.217297 -3.2079e-22)
(0.574119 -0.203894 3.00546e-21)
(0.5993 -0.191059 -3.55357e-21)
(0.62402 -0.178591 -9.90719e-21)
(0.648428 -0.166277 1.55967e-20)
(0.672023 -0.15418 2.16109e-21)
(0.69452 -0.142472 -1.39342e-20)
(0.71589 -0.13129 1.10355e-20)
(0.736182 -0.120704 7.18893e-21)
(0.755439 -0.110758 -5.51546e-21)
(0.773682 -0.101484 -4.12875e-21)
(0.790922 -0.092889 -2.74208e-21)
(0.807182 -0.0849618 1.82644e-21)
(0.8225 -0.0776816 6.88515e-21)
(0.836923 -0.0710177 -1.2139e-20)
(0.850501 -0.0649293 1.20008e-20)
(0.863286 -0.0593662 -1.92018e-21)
(0.87533 -0.0542692 -5.08789e-21)
(0.886685 -0.0495712 3.92973e-21)
(0.897396 -0.045199 -7.9815e-21)
(0.907505 -0.0410773 1.16225e-21)
(0.917038 -0.0371363 5.8239e-22)
(0.926008 -0.0333216 1.10321e-21)
(0.934412 -0.0296034 7.03392e-22)
(0.942231 -0.0259827 -1.35886e-21)
(0.949442 -0.0224912 -4.16038e-22)
(0.956017 -0.0191842 1.42934e-22)
(0.96194 -0.0161282 -3.35065e-22)
(0.967208 -0.0133845 3.18338e-23)
(0.971843 -0.0109931 1.98014e-22)
(0.975879 -0.00896528 2.57176e-22)
(0.979368 -0.00728477 -5.72117e-22)
(0.982369 -0.00591786 -1.59305e-23)
(0.984938 -0.00481859 6.4247e-22)
(0.987133 -0.0039384 -1.78461e-22)
(0.989025 -0.00323933 -2.34257e-22)
(0.990657 -0.0026823 5.3519e-23)
(0.992075 -0.00223009 -1.50453e-22)
(0.993293 -0.00185982 6.12437e-23)
(0.994359 -0.00154923 -4.6914e-23)
(0.995262 -0.00129116 -1.3102e-23)
(0.996062 -0.00107006 4.20274e-23)
(0.996715 -0.000889455 3.77838e-23)
(0.997318 -0.000731729 -4.95108e-23)
(0.997772 -0.000609685 -2.25661e-23)
(0.998241 -0.000497398 1.68209e-23)
(0.998532 -0.00042129 -1.19357e-23)
(0.998929 -0.000339563 3.30137e-24)
(0.999073 -0.000302018 -8.91358e-24)
(0.999468 -0.000237725 -2.78695e-25)
(0.681393 -0.252137 -2.24962e-21)
(0.699403 -0.237376 2.79966e-21)
(0.714726 -0.223037 -2.37322e-21)
(0.730246 -0.208837 3.41961e-21)
(0.746168 -0.194647 -9.24354e-21)
(0.761834 -0.180631 1.77179e-20)
(0.776874 -0.167026 -5.34826e-21)
(0.791262 -0.153991 -2.68636e-22)
(0.805052 -0.14161 -5.86711e-21)
(0.818255 -0.129932 1.31131e-21)
(0.830865 -0.119009 8.69962e-21)
(0.842876 -0.108875 -2.69858e-21)
(0.854283 -0.0995266 -1.50234e-20)
(0.865085 -0.0909366 1.35889e-20)
(0.875292 -0.0830696 -7.62722e-21)
(0.884922 -0.0758825 3.27172e-21)
(0.893996 -0.069323 -4.50961e-21)
(0.902542 -0.0633285 -3.5368e-21)
(0.910592 -0.0578264 1.34595e-20)
(0.918181 -0.0527359 -5.23404e-21)
(0.925349 -0.0479712 5.15413e-21)
(0.932131 -0.0434488 -7.13933e-21)
(0.938557 -0.0390987 7.22003e-21)
(0.944646 -0.0348758 -3.28574e-21)
(0.950407 -0.030768 -1.13177e-21)
(0.955832 -0.0267981 5.96008e-22)
(0.960905 -0.0230188 3.8814e-22)
(0.965604 -0.0195005 -3.83781e-23)
(0.969908 -0.0163131 -1.50852e-21)
(0.973805 -0.0135068 2.6167e-22)
(0.977296 -0.0111012 7.6593e-22)
(0.980393 -0.00908481 -4.43827e-22)
(0.983116 -0.00742616 1.51532e-22)
(0.985493 -0.00607812 -2.32544e-22)
(0.987553 -0.00498752 2.15682e-22)
(0.989346 -0.00411451 1.25429e-22)
(0.990908 -0.00341436 1.36275e-22)
(0.992273 -0.00284298 -2.3707e-22)
(0.993451 -0.00237341 1.18175e-22)
(0.994486 -0.00197844 4.65486e-23)
(0.995364 -0.00164968 -1.05676e-22)
(0.996144 -0.0013676 3.18351e-23)
(0.996782 -0.00113701 -9.29666e-24)
(0.997372 -0.000935449 4.85284e-23)
(0.997816 -0.000779447 8.79209e-24)
(0.998276 -0.000635827 -2.1334e-23)
(0.99856 -0.000538496 1.25951e-24)
(0.99895 -0.000433936 -4.36884e-24)
(0.999091 -0.000385921 5.62224e-24)
(0.999479 -0.000303703 8.39252e-25)
(0.801664 -0.273123 -7.93564e-21)
(0.810362 -0.258282 3.58135e-21)
(0.81646 -0.243653 -9.20246e-21)
(0.823319 -0.228819 6.30642e-22)
(0.831235 -0.213762 5.79386e-21)
(0.839452 -0.198775 -3.86103e-21)
(0.847549 -0.184153 -2.43808e-21)
(0.855504 -0.170069 2.91233e-22)
(0.863374 -0.156619 8.53304e-22)
(0.871143 -0.143868 1.97402e-21)
(0.878754 -0.131877 2.14092e-21)
(0.886173 -0.120695 -6.36173e-21)
(0.893381 -0.110348 -1.16147e-22)
(0.900349 -0.100821 4.37573e-21)
(0.907043 -0.0920781 -7.76255e-22)
(0.913438 -0.0840745 -6.54084e-21)
(0.91952 -0.0767597 6.72725e-21)
(0.925284 -0.0700748 1.50244e-21)
(0.930732 -0.0639502 -3.86659e-21)
(0.935877 -0.0583064 2.45653e-21)
(0.940742 -0.0530563 -7.62212e-22)
(0.945355 -0.048111 -5.1642e-21)
(0.94975 -0.0433908 1.93625e-21)
(0.95396 -0.0388381 2.29223e-21)
(0.958011 -0.0344263 1.67648e-21)
(0.961918 -0.0301639 9.30201e-22)
(0.965678 -0.0260931 -9.47214e-22)
(0.969277 -0.0222795 -6.89005e-22)
(0.972688 -0.0187948 -7.32678e-22)
(0.975883 -0.0156951 7.1495e-22)
(0.978839 -0.0130076 -3.4434e-22)
(0.981538 -0.0107271 -8.01478e-23)
(0.983971 -0.00882792 6.24613e-22)
(0.986142 -0.00726652 -3.8009e-22)
(0.988052 -0.00598887 -2.48333e-22)
(0.989734 -0.00495681 2.28566e-22)
(0.991213 -0.0041231 -3.29367e-22)
(0.992516 -0.00343887 2.52946e-22)
(0.993646 -0.00287427 3.58992e-23)
(0.994643 -0.00239792 -8.62837e-25)
(0.995491 -0.00200061 1.02e-22)
(0.996247 -0.00165913 -1.16502e-22)
(0.996865 -0.00137972 1.3133e-22)
(0.997439 -0.00113522 -3.53967e-23)
(0.997871 -0.000945925 3.25831e-23)
(0.998319 -0.000771523 -2.00191e-23)
(0.998596 -0.000653352 -2.10202e-24)
(0.998976 -0.000526342 -1.46586e-23)
(0.999114 -0.000468047 1.55463e-25)
(0.999493 -0.000368238 3.3583e-25)
(0.902039 -0.281647 5.9293e-20)
(0.902691 -0.267785 -9.69223e-21)
(0.900978 -0.253918 1.57289e-21)
(0.900437 -0.239459 -3.626e-22)
(0.901437 -0.224499 1.65763e-21)
(0.9032 -0.209454 -2.18563e-21)
(0.905293 -0.194664 1.09569e-20)
(0.907711 -0.180308 2.93093e-21)
(0.910509 -0.166489 -2.02647e-20)
(0.913652 -0.153299 -9.00748e-21)
(0.917049 -0.140814 3.33304e-20)
(0.920621 -0.129087 -1.88375e-20)
(0.924325 -0.118156 7.3965e-21)
(0.928125 -0.10804 1.18188e-20)
(0.931963 -0.0987227 -1.42938e-20)
(0.935777 -0.0901656 3.32203e-22)
(0.939516 -0.0823203 3.79351e-21)
(0.94314 -0.0751325 -7.37521e-21)
(0.946623 -0.0685408 4.82347e-21)
(0.949951 -0.062474 2.80364e-21)
(0.953122 -0.0568513 -3.07827e-21)
(0.956147 -0.0515864 -1.72958e-21)
(0.959049 -0.0465981 -1.09499e-21)
(0.961861 -0.0418221 7.12343e-23)
(0.964618 -0.0372203 -4.42042e-22)
(0.967345 -0.0327864 1.11583e-21)
(0.970057 -0.0285476 1.82636e-21)
(0.972748 -0.0245587 -1.3005e-21)
(0.975396 -0.0208871 1.54894e-21)
(0.977971 -0.0175902 -1.24737e-21)
(0.980436 -0.0147 9.54796e-23)
(0.982758 -0.0122175 -4.04122e-22)
(0.984907 -0.0101235 -1.87745e-22)