/*--------------------------------*- C++ -*----------------------------------*\
  =========                 |
  \\      /  F ield         | OpenFOAM: The Open Source CFD Toolbox
   \\    /   O peration     | Website:  https://openfoam.org
    \\  /    A nd           | Version:  7
     \\/     M anipulation  |
\*---------------------------------------------------------------------------*/
FoamFile
{
    version     2.0;
    format      ascii;
    class       surfaceScalarField;
    location    "5";
    object      phi;
}
// * * * * * * * * * * * * * * * * * * * * * * * * * * * * * * * * * * * * * //

dimensions      [0 3 -1 0 0 0 0];

internalField   nonuniform List<scalar> 
5147
(
0.00219266
-0.000162599
0.00219099
-0.000148898
0.00218947
-0.000136011
0.0021881
-0.000123929
0.00218687
-0.000112638
0.00218576
-0.00010212
0.00218477
-9.23529e-05
0.00218388
-8.3312e-05
0.00218309
-7.49702e-05
0.00218238
-6.72979e-05
0.00218175
-6.02641e-05
0.00218118
-5.38359e-05
0.00218069
-4.79797e-05
0.00218025
-4.26609e-05
0.00217986
-3.78448e-05
0.00217952
-3.34966e-05
0.00217922
-2.95819e-05
0.00217895
-2.60673e-05
0.00217872
-2.29204e-05
0.00217852
-2.01099e-05
0.00217834
-1.76075e-05
0.00217819
-1.53822e-05
0.00217805
-1.34102e-05
0.00217794
-1.16669e-05
0.00217783
-1.01281e-05
0.00217775
-8.77537e-06
0.00217767
-7.58529e-06
0.00217761
-6.54674e-06
0.00217755
-5.63346e-06
0.0021775
-4.84664e-06
0.00217746
-4.14867e-06
0.00217743
-3.56525e-06
0.0021774
-3.02801e-06
0.00217737
-2.61568e-06
0.00217735
-2.18572e-06
0.00217733
-1.93343e-06
-1.544e-06
0.00225797
-0.000417766
0.00225239
-0.000397375
0.00224716
-0.000376857
0.00224228
-0.000356349
0.00223775
-0.000335983
0.00223354
-0.00031588
0.00222966
-0.000296151
0.00222607
-0.000276892
0.00222278
-0.000258187
0.00221975
-0.000240109
0.00221698
-0.000222713
0.00221446
-0.000206046
0.00221215
-0.000190141
0.00221006
-0.00017502
0.00220815
-0.000160696
0.00220643
-0.000147174
0.00220487
-0.000134452
0.00220346
-0.000122522
0.00220219
-0.000111371
0.00220105
-0.00010098
0.00220003
-9.13295e-05
0.00219911
-8.23952e-05
0.00219829
-7.41505e-05
0.00219756
-6.65666e-05
0.00219691
-5.96128e-05
0.00219633
-5.32571e-05
0.00219582
-4.74663e-05
0.00219537
-4.22065e-05
0.00219496
-3.74434e-05
0.00219461
-3.31427e-05
0.0021943
-2.92705e-05
0.00219403
-2.57939e-05
0.00219379
-2.26807e-05
0.00219358
-1.99003e-05
0.00219339
-1.74244e-05
0.00219323
-1.52227e-05
0.00219309
-1.32715e-05
0.00219297
-1.15465e-05
0.00219287
-1.00238e-05
0.00219278
-8.68513e-06
0.0021927
-7.50744e-06
0.00219263
-6.47962e-06
0.00219258
-5.57583e-06
0.00219253
-4.79705e-06
0.00219249
-4.10637e-06
0.00219245
-3.52879e-06
0.00219242
-2.9973e-06
0.00219239
-2.58885e-06
0.00219237
-2.16377e-06
0.00219235
-1.91335e-06
-1.52851e-06
0.00227464
-0.000411707
0.00226895
-0.000391686
0.00226363
-0.000371531
0.00225866
-0.000351379
0.00225403
-0.000331359
0.00224974
-0.00031159
0.00224577
-0.000292181
0.00224211
-0.000273229
0.00223874
-0.000254816
0.00223564
-0.000237013
0.00223281
-0.000219878
0.00223022
-0.000203455
0.00222785
-0.000187778
0.0022257
-0.000172869
0.00222375
-0.000158742
0.00222198
-0.000145403
0.00222038
-0.00013285
0.00221893
-0.000121075
0.00221763
-0.000110066
0.00221645
-9.98064e-05
0.0022154
-9.02757e-05
0.00221445
-8.14509e-05
0.00221361
-7.33058e-05
0.00221285
-6.58126e-05
0.00221218
-5.89412e-05
0.00221159
-5.26601e-05
0.00221106
-4.69367e-05
0.00221059
-4.17376e-05
0.00221017
-3.7029e-05
0.00220981
-3.27773e-05
0.00220949
-2.89489e-05
0.0022092
-2.55114e-05
0.00220896
-2.24331e-05
0.00220874
-1.96836e-05
0.00220855
-1.72351e-05
0.00220839
-1.50578e-05
0.00220824
-1.31281e-05
0.00220812
-1.14219e-05
0.00220801
-9.91586e-06
0.00220792
-8.59178e-06
0.00220784
-7.42689e-06
0.00220777
-6.41017e-06
0.00220771
-5.5162e-06
0.00220765
-4.74574e-06
0.00220761
-4.0626e-06
0.00220757
-3.49106e-06
0.00220754
-2.9655e-06
0.00220751
-2.56108e-06
0.00220749
-2.14104e-06
0.00220747
-1.89258e-06
-1.51247e-06
0.00229142
-0.000405546
0.00228563
-0.000385897
0.00228021
-0.000366108
0.00227514
-0.000346315
0.00227043
-0.000326644
0.00226605
-0.000307212
0.002262
-0.000288128
0.00225826
-0.000269487
0.00225481
-0.00025137
0.00225164
-0.000233847
0.00224874
-0.000216976
0.00224609
-0.000200801
0.00224367
-0.000185356
0.00224146
-0.000170663
0.00223946
-0.000156738
0.00223764
-0.000143585
0.00223599
-0.000131204
0.0022345
-0.000119588
0.00223316
-0.000108725
0.00223196
-9.85991e-05
0.00223087
-8.91913e-05
0.0022299
-8.04786e-05
0.00222903
-7.2436e-05
0.00222825
-6.50359e-05
0.00222756
-5.82491e-05
0.00222694
-5.20446e-05
0.0022264
-4.63905e-05
0.00222591
-4.12538e-05
0.00222549
-3.66015e-05
0.00222511
-3.24002e-05
0.00222478
-2.8617e-05
0.00222449
-2.52198e-05
0.00222423
-2.21774e-05
0.00222401
-1.94598e-05
0.00222381
-1.70396e-05
0.00222364
-1.48874e-05
0.00222349
-1.29799e-05
0.00222336
-1.12932e-05
0.00222325
-9.80433e-06
0.00222316
-8.49528e-06
0.00222307
-7.34363e-06
0.002223
-6.33837e-06
0.00222294
-5.45453e-06
0.00222289
-4.69267e-06
0.00222284
-4.01733e-06
0.0022228
-3.45203e-06
0.00222277
-2.93262e-06
0.00222274
-2.53236e-06
0.00222272
-2.1175e-06
0.0022227
-1.87111e-06
-1.49588e-06
0.00230831
-0.000399282
0.00230242
-0.000380007
0.0022969
-0.000360588
0.00229174
-0.000341157
0.00228694
-0.000321838
0.00228247
-0.000302748
0.00227834
-0.000283992
0.00227452
-0.000265665
0.00227099
-0.000247848
0.00226776
-0.000230609
0.00226479
-0.000214006
0.00226207
-0.000198083
0.00225959
-0.000182874
0.00225733
-0.000168402
0.00225527
-0.000154682
0.0022534
-0.000141719
0.00225171
-0.000129514
0.00225019
-0.00011806
0.00224881
-0.000107346
0.00224757
-9.7358e-05
0.00224645
-8.80759e-05
0.00224545
-7.94783e-05
0.00224456
-7.15406e-05
0.00224376
-6.42362e-05
0.00224304
-5.75362e-05
0.00224241
-5.14106e-05
0.00224185
-4.58276e-05
0.00224135
-4.07553e-05
0.00224091
-3.61607e-05
0.00224052
-3.20113e-05
0.00224018
-2.82746e-05
0.00223987
-2.49189e-05
0.00223961
-2.19136e-05
0.00223938
-1.92289e-05
0.00223918
-1.68378e-05
0.002239
-1.47115e-05
0.00223885
-1.28268e-05
0.00223872
-1.11603e-05
0.0022386
-9.68915e-06
0.0022385
-8.39562e-06
0.00223842
-7.25762e-06
0.00223834
-6.26419e-06
0.00223828
-5.39082e-06
0.00223822
-4.63784e-06
0.00223818
-3.97055e-06
0.00223814
-3.41171e-06
0.0022381
-2.89862e-06
0.00223807
-2.50268e-06
0.00223805
-2.09316e-06
0.00223803
-1.84895e-06
-1.47872e-06
0.00232531
-0.000392915
0.00231932
-0.000374018
0.00231371
-0.000354971
0.00230845
-0.000335904
0.00230356
-0.000316941
0.00229901
-0.000298196
0.00229479
-0.000279773
0.00229089
-0.000261764
0.00228729
-0.00024425
0.00228398
-0.0002273
0.00228094
-0.000210969
0.00227816
-0.000195302
0.00227562
-0.000180333
0.0022733
-0.000166086
0.00227119
-0.000152574
0.00226928
-0.000139805
0.00226755
-0.000127779
0.00226598
-0.000116491
0.00226456
-0.000105931
0.00226329
-9.60826e-05
0.00226214
-8.69294e-05
0.00226111
-7.84497e-05
0.00226019
-7.06197e-05
0.00225937
-6.34134e-05
0.00225863
-5.68026e-05
0.00225798
-5.07578e-05
0.0022574
-4.5248e-05
0.00225689
-4.02417e-05
0.00225643
-3.57066e-05
0.00225603
-3.16106e-05
0.00225568
-2.79217e-05
0.00225537
-2.46088e-05
0.0022551
-2.16415e-05
0.00225486
-1.89907e-05
0.00225465
-1.66297e-05
0.00225447
-1.45301e-05
0.00225431
-1.2669e-05
0.00225417
-1.10232e-05
0.00225406
-9.57028e-06
0.00225395
-8.29275e-06
0.00225386
-7.16883e-06
0.00225379
-6.18761e-06
0.00225372
-5.32505e-06
0.00225367
-4.58123e-06
0.00225362
-3.92224e-06
0.00225358
-3.37007e-06
0.00225354
-2.86351e-06
0.00225351
-2.47204e-06
0.00225348
-2.06801e-06
0.00225346
-1.82608e-06
-1.46099e-06
0.00234243
-0.000386446
0.00233634
-0.000367928
0.00233062
-0.000349256
0.00232528
-0.000330558
0.00232029
-0.000311954
0.00231565
-0.000293557
0.00231135
-0.000275469
0.00230737
-0.000257783
0.00230369
-0.000240576
0.00230031
-0.000223918
0.00229721
-0.000207864
0.00229436
-0.000192457
0.00229176
-0.000177732
0.00228939
-0.000163713
0.00228723
-0.000150414
0.00228527
-0.000137843
0.00228349
-0.000126
0.00228188
-0.000114882
0.00228042
-0.000104477
0.00227911
-9.47729e-05
0.00227794
-8.57515e-05
0.00227688
-7.73925e-05
0.00227593
-6.96729e-05
0.00227509
-6.25672e-05
0.00227433
-5.60479e-05
0.00227366
-5.00861e-05
0.00227306
-4.46515e-05
0.00227253
-3.9713e-05
0.00227207
-3.5239e-05
0.00227165
-3.11979e-05
0.00227129
-2.75582e-05
0.00227097
-2.42892e-05
0.00227069
-2.13612e-05
0.00227045
-1.87453e-05
0.00227023
-1.64151e-05
0.00227004
-1.4343e-05
0.00226988
-1.25062e-05
0.00226974
-1.08817e-05
0.00226962
-9.44769e-06
0.00226951
-8.18665e-06
0.00226942
-7.07725e-06
0.00226934
-6.10862e-06
0.00226927
-5.25719e-06
0.00226921
-4.52283e-06
0.00226916
-3.8724e-06
0.00226912
-3.32711e-06
0.00226909
-2.82727e-06
0.00226905
-2.44043e-06
0.00226903
-2.04203e-06
0.002269
-1.80249e-06
-1.44268e-06
0.00235965
-0.000379875
0.00235347
-0.000361739
0.00234765
-0.000343445
0.00234221
-0.000325117
0.00233714
-0.000306876
0.00233241
-0.00028883
0.00232802
-0.000271082
0.00232396
-0.000253721
0.00232021
-0.000236827
0.00231676
-0.000220464
0.00231358
-0.00020469
0.00231067
-0.000189548
0.00230801
-0.000175071
0.00230558
-0.000161284
0.00230337
-0.000148202
0.00230136
-0.000135832
0.00229954
-0.000124177
0.00229789
-0.000113231
0.0022964
-0.000102986
0.00229505
-9.34285e-05
0.00229384
-8.4542e-05
0.00229276
-7.63067e-05
0.00229178
-6.87001e-05
0.00229091
-6.16975e-05
0.00229014
-5.5272e-05
0.00228945
-4.93954e-05
0.00228883
-4.40379e-05
0.00228829
-3.91691e-05
0.00228781
-3.47578e-05
0.00228738
-3.07731e-05
0.00228701
-2.7184e-05
0.00228668
-2.39602e-05
0.00228639
-2.10725e-05
0.00228614
-1.84925e-05
0.00228592
-1.61941e-05
0.00228573
-1.41503e-05
0.00228556
-1.23384e-05
0.00228541
-1.0736e-05
0.00228529
-9.32135e-06
0.00228518
-8.0773e-06
0.00228508
-6.98285e-06
0.002285
-6.02719e-06
0.00228493
-5.18723e-06
0.00228487
-4.46262e-06
0.00228482
-3.821e-06
0.00228477
-3.28282e-06
0.00228474
-2.78989e-06
0.0022847
-2.40784e-06
0.00228468
-2.01523e-06
0.00228465
-1.77819e-06
-1.42379e-06
0.00237699
-0.000373202
0.0023707
-0.000355451
0.0023648
-0.000337537
0.00235926
-0.000319583
0.00235409
-0.000301707
0.00234928
-0.000284017
0.00234481
-0.000266611
0.00234067
-0.00024958
0.00233684
-0.000233001
0.00233331
-0.000216938
0.00233007
-0.000201448
0.0023271
-0.000186575
0.00232438
-0.00017235
0.00232189
-0.000158799
0.00231963
-0.000145937
0.00231757
-0.000133773
0.0023157
-0.000122308
0.00231401
-0.000111539
0.00231248
-0.000101457
0.0023111
-9.20492e-05
0.00230986
-8.33007e-05
0.00230874
-7.51919e-05
0.00230774
-6.77011e-05
0.00230685
-6.08041e-05
0.00230605
-5.44748e-05
0.00230534
-4.86855e-05
0.00230471
-4.34072e-05
0.00230415
-3.86098e-05
0.00230366
-3.4263e-05
0.00230322
-3.03362e-05
0.00230284
-2.6799e-05
0.0023025
-2.36216e-05
0.0023022
-2.07754e-05
0.00230194
-1.82323e-05
0.00230171
-1.59666e-05
0.00230152
-1.39519e-05
0.00230134
-1.21657e-05
0.00230119
-1.05859e-05
0.00230106
-9.19123e-06
0.00230095
-7.96466e-06
0.00230085
-6.88561e-06
0.00230077
-5.9433e-06
0.0023007
-5.11515e-06
0.00230063
-4.40058e-06
0.00230058
-3.76804e-06
0.00230054
-3.23717e-06
0.0023005
-2.75137e-06
0.00230046
-2.37426e-06
0.00230044
-1.9876e-06
0.00230041
-1.75317e-06
-1.40432e-06
0.00239444
-0.000366429
0.00238806
-0.000349063
0.00238205
-0.000331532
0.00237642
-0.000313955
0.00237116
-0.000296447
0.00236626
-0.000279115
0.00236171
-0.000262057
0.00235749
-0.000245359
0.00235358
-0.000229098
0.00234999
-0.00021334
0.00234668
-0.000198138
0.00234364
-0.000183537
0.00234086
-0.000169568
0.00233831
-0.000156257
0.002336
-0.00014362
0.00233389
-0.000131665
0.00233197
-0.000120394
0.00233024
-0.000109805
0.00232867
-9.98888e-05
0.00232726
-9.06349e-05
0.00232598
-8.20274e-05
0.00232484
-7.40481e-05
0.00232382
-6.66757e-05
0.0023229
-5.98869e-05
0.00232208
-5.36561e-05
0.00232135
-4.79564e-05
0.0023207
-4.27592e-05
0.00232013
-3.80351e-05
0.00231962
-3.37544e-05
0.00231917
-2.9887e-05
0.00231877
-2.64031e-05
0.00231843
-2.32735e-05
0.00231812
-2.04698e-05
0.00231785
-1.79646e-05
0.00231762
-1.57326e-05
0.00231741
-1.37477e-05
0.00231724
-1.1988e-05
0.00231708
-1.04315e-05
0.00231695
-9.0573e-06
0.00231683
-7.84872e-06
0.00231673
-6.7855e-06
0.00231665
-5.85694e-06
0.00231657
-5.04094e-06
0.00231651
-4.33671e-06
0.00231645
-3.7135e-06
0.00231641
-3.19018e-06
0.00231637
-2.71169e-06
0.00231633
-2.33968e-06
0.0023163
-1.95912e-06
0.00231628
-1.72742e-06
-1.38426e-06
0.002412
-0.000359554
0.00240552
-0.000342578
0.00239942
-0.000325431
0.0023937
-0.000308234
0.00238835
-0.000291098
0.00238336
-0.000274127
0.00237872
-0.000257418
0.00237442
-0.000241057
0.00237044
-0.000225119
0.00236677
-0.000209669
0.00236339
-0.000194759
0.00236029
-0.000180434
0.00235744
-0.000166726
0.00235485
-0.000153659
0.00235248
-0.00014125
0.00235032
-0.000129507
0.00234836
-0.000118434
0.00234658
-0.000108029
0.00234498
-9.82826e-05
0.00234353
-8.91853e-05
0.00234222
-8.0722e-05
0.00234105
-7.28749e-05
0.00234
-6.56238e-05
0.00233906
-5.89457e-05
0.00233822
-5.28159e-05
0.00233747
-4.72078e-05
0.0023368
-4.20937e-05
0.00233621
-3.74449e-05
0.00233569
-3.32319e-05
0.00233523
-2.94255e-05
0.00233482
-2.59963e-05
0.00233446
-2.29156e-05
0.00233415
-2.01557e-05
0.00233387
-1.76894e-05
0.00233363
-1.5492e-05
0.00233342
-1.35378e-05
0.00233324
-1.18052e-05
0.00233308
-1.02726e-05
0.00233294
-8.91954e-06
0.00233282
-7.72945e-06
0.00233272
-6.68251e-06
0.00233263
-5.76808e-06
0.00233256
-4.96458e-06
0.00233249
-4.27098e-06
0.00233243
-3.65737e-06
0.00233239
-3.14182e-06
0.00233234
-2.67085e-06
0.00233231
-2.30411e-06
0.00233228
-1.9298e-06
0.00233225
-1.70093e-06
-1.3636e-06
0.00242968
-0.00035258
0.00242309
-0.000335994
0.0024169
-0.000319235
0.00241108
-0.00030242
0.00240564
-0.000285658
0.00240057
-0.000269052
0.00239585
-0.000252696
0.00239146
-0.000236676
0.00238741
-0.000221064
0.00238367
-0.000205925
0.00238022
-0.000191312
0.00237705
-0.000177266
0.00237415
-0.000163822
0.00237149
-0.000151003
0.00236907
-0.000138826
0.00236686
-0.000127301
0.00236486
-0.000116429
0.00236304
-0.000106211
0.00236139
-9.66377e-05
0.00235991
-8.77003e-05
0.00235857
-7.93842e-05
0.00235737
-7.16724e-05
0.00235629
-6.45452e-05
0.00235532
-5.79804e-05
0.00235446
-5.19539e-05
0.00235369
-4.64397e-05
0.00235301
-4.14108e-05
0.00235241
-3.68389e-05
0.00235187
-3.26955e-05
0.0023514
-2.89516e-05
0.00235098
-2.55785e-05
0.00235061
-2.25481e-05
0.00235029
-1.9833e-05
0.00235
-1.74067e-05
0.00234976
-1.52447e-05
0.00234954
-1.33221e-05
0.00234935
-1.16173e-05
0.00234919
-1.01093e-05
0.00234905
-8.77792e-06
0.00234893
-7.60683e-06
0.00234882
-6.57662e-06
0.00234873
-5.67672e-06
0.00234865
-4.88606e-06
0.00234858
-4.20339e-06
0.00234852
-3.59965e-06
0.00234848
-3.09209e-06
0.00234843
-2.62884e-06
0.0023484
-2.26753e-06
0.00234837
-1.89963e-06
0.00234834
-1.67371e-06
-1.34234e-06
0.00244747
-0.000345506
0.00244078
-0.000329312
0.00243449
-0.000312943
0.00242858
-0.000296512
0.00242305
-0.000280127
0.00241789
-0.000263889
0.00241309
-0.000247891
0.00240862
-0.000232214
0.00240449
-0.000216933
0.00240068
-0.000202109
0.00239716
-0.000187795
0.00239393
-0.000174034
0.00239096
-0.000160857
0.00238825
-0.000148291
0.00238577
-0.00013635
0.00238352
-0.000125044
0.00238147
-0.000114378
0.00237961
-0.00010435
0.00237792
-9.4954e-05
0.0023764
-8.61797e-05
0.00237503
-7.80139e-05
0.0023738
-7.04404e-05
0.00237269
-6.34398e-05
0.0023717
-5.69909e-05
0.00237082
-5.107e-05
0.00237003
-4.5652e-05
0.00236933
-4.07102e-05
0.00236871
-3.62173e-05
0.00236816
-3.2145e-05
0.00236767
-2.84652e-05
0.00236725
-2.51497e-05
0.00236687
-2.21707e-05
0.00236654
-1.95017e-05
0.00236625
-1.71163e-05
0.00236599
-1.49908e-05
0.00236577
-1.31005e-05
0.00236558
-1.14243e-05
0.00236541
-9.94155e-06
0.00236526
-8.63242e-06
0.00236514
-7.48084e-06
0.00236503
-6.46782e-06
0.00236494
-5.58284e-06
0.00236486
-4.80537e-06
0.00236479
-4.13394e-06
0.00236473
-3.54032e-06
0.00236468
-3.04098e-06
0.00236463
-2.58565e-06
0.00236459
-2.22994e-06
0.00236456
-1.8686e-06
0.00236454
-1.64575e-06
-1.32048e-06
0.00246536
-0.000338333
0.00245859
-0.000322534
0.0024522
-0.000306556
0.0024462
-0.000290512
0.00244058
-0.000274508
0.00243533
-0.00025864
0.00243044
-0.000243001
0.0024259
-0.000227672
0.00242169
-0.000212724
0.0024178
-0.00019822
0.00241422
-0.00018421
0.00241092
-0.000170736
0.00240789
-0.000157832
0.00240512
-0.000145521
0.00240259
-0.00013382
0.00240029
-0.000122738
0.00239819
-0.000112281
0.00239629
-0.000102448
0.00239457
-9.32313e-05
0.00239301
-8.46234e-05
0.00239161
-7.66111e-05
0.00239034
-6.91786e-05
0.00238921
-6.23075e-05
0.0023882
-5.5977e-05
0.00238729
-5.01642e-05
0.00238649
-4.48445e-05
0.00238577
-3.9992e-05
0.00238513
-3.55799e-05
0.00238456
-3.15805e-05
0.00238407
-2.79663e-05
0.00238363
-2.47097e-05
0.00238324
-2.17836e-05
0.0023829
-1.91616e-05
0.0023826
-1.68184e-05
0.00238234
-1.47301e-05
0.00238211
-1.2873e-05
0.00238191
-1.12261e-05
0.00238174
-9.76931e-06
0.00238159
-8.48301e-06
0.00238146
-7.35146e-06
0.00238135
-6.35608e-06
0.00238126
-5.48642e-06
0.00238117
-4.72248e-06
0.0023811
-4.06259e-06
0.00238104
-3.47938e-06
0.00238099
-2.98848e-06
0.00238094
-2.54128e-06
0.0023809
-2.19133e-06
0.00238087
-1.8367e-06
0.00238084
-1.61704e-06
-1.29801e-06
0.00248338
-0.000331063
0.0024765
-0.000315658
0.00247002
-0.000300075
0.00246393
-0.000284421
0.00245822
-0.000268798
0.00245288
-0.000253305
0.00244791
-0.000238029
0.00244329
-0.00022305
0.002439
-0.00020844
0.00243504
-0.000194258
0.00243139
-0.000180556
0.00242803
-0.000167374
0.00242494
-0.000154745
0.00242211
-0.000142693
0.00241953
-0.000131236
0.00241717
-0.000120383
0.00241503
-0.000110138
0.00241308
-0.000100502
0.00241132
-9.14694e-05
0.00240973
-8.30312e-05
0.00240829
-7.51755e-05
0.002407
-6.78871e-05
0.00240584
-6.11482e-05
0.0024048
-5.49387e-05
0.00240388
-4.92364e-05
0.00240305
-4.40172e-05
0.00240231
-3.9256e-05
0.00240166
-3.49265e-05
0.00240108
-3.10018e-05
0.00240057
-2.74548e-05
0.00240012
-2.42586e-05
0.00239972
-2.13865e-05
0.00239937
-1.88129e-05
0.00239907
-1.65127e-05
0.0023988
-1.44627e-05
0.00239857
-1.26396e-05
0.00239836
-1.10228e-05
0.00239819
-9.59256e-06
0.00239803
-8.32969e-06
0.0023979
-7.21868e-06
0.00239779
-6.24139e-06
0.00239769
-5.38745e-06
0.0023976
-4.6374e-06
0.00239753
-3.98936e-06
0.00239747
-3.41681e-06
0.00239741
-2.93459e-06
0.00239737
-2.49571e-06
0.00239733
-2.1517e-06
0.00239729
-1.80395e-06
0.00239726
-1.58758e-06
-1.27493e-06
0.0025015
-0.000323694
0.00249453
-0.000308687
0.00248795
-0.0002935
0.00248177
-0.000278237
0.00247597
-0.000263
0.00247055
-0.000247883
0.00246549
-0.000232973
0.00246079
-0.000218349
0.00245643
-0.000204079
0.0024524
-0.000190224
0.00244867
-0.000176833
0.00244525
-0.000163946
0.0024421
-0.000151597
0.00243921
-0.000139809
0.00243658
-0.000128599
0.00243417
-0.000117977
0.00243198
-0.000107949
0.00242999
-9.85143e-05
0.00242819
-8.96684e-05
0.00242656
-8.14031e-05
0.0024251
-7.3707e-05
0.00242377
-6.65657e-05
0.00242259
-5.99618e-05
0.00242153
-5.38759e-05
0.00242058
-4.82864e-05
0.00241973
-4.31701e-05
0.00241897
-3.85022e-05
0.00241831
-3.42573e-05
0.00241771
-3.04089e-05
0.00241719
-2.69307e-05
0.00241673
-2.37962e-05
0.00241632
-2.09795e-05
0.00241596
-1.84554e-05
0.00241565
-1.61993e-05
0.00241537
-1.41886e-05
0.00241513
-1.24003e-05
0.00241493
-1.08144e-05
0.00241474
-9.41129e-06
0.00241459
-8.17243e-06
0.00241445
-7.08249e-06
0.00241433
-6.12374e-06
0.00241423
-5.28592e-06
0.00241414
-4.55012e-06
0.00241407
-3.91423e-06
0.00241401
-3.35261e-06
0.00241395
-2.8793e-06
0.0024139
-2.44895e-06
0.00241386
-2.11105e-06
0.00241383
-1.77032e-06
0.0024138
-1.55738e-06
-1.25123e-06
0.00251974
-0.000316229
0.00251267
-0.000301621
0.002506
-0.000286831
0.00249973
-0.000271962
0.00249384
-0.000257113
0.00248833
-0.000242375
0.00248319
-0.000227835
0.00247841
-0.000213568
0.00247397
-0.000199643
0.00246987
-0.000186117
0.00246608
-0.000173041
0.00246258
-0.000160454
0.00245937
-0.000148388
0.00245643
-0.000136867
0.00245374
-0.000125908
0.00245129
-0.000115522
0.00244905
-0.000105714
0.00244702
-9.64837e-05
0.00244518
-8.7828e-05
0.00244351
-7.9739e-05
0.00244201
-7.22057e-05
0.00244066
-6.52143e-05
0.00243945
-5.87481e-05
0.00243836
-5.27884e-05
0.00243739
-4.73143e-05
0.00243652
-4.2303e-05
0.00243575
-3.77305e-05
0.00243506
-3.3572e-05
0.00243446
-2.98017e-05
0.00243392
-2.63939e-05
0.00243345
-2.33226e-05
0.00243303
-2.05626e-05
0.00243266
-1.80891e-05
0.00243234
-1.58782e-05
0.00243206
-1.39076e-05
0.00243182
-1.2155e-05
0.0024316
-1.06007e-05
0.00243142
-9.22547e-06
0.00243126
-8.01121e-06
0.00243112
-6.94286e-06
0.002431
-6.00311e-06
0.00243089
-5.18183e-06
0.0024308
-4.46062e-06
0.00243072
-3.83719e-06
0.00243066
-3.28677e-06
0.0024306
-2.82261e-06
0.00243055
-2.40099e-06
0.00243051
-2.06937e-06
0.00243048
-1.73582e-06
0.00243045
-1.52642e-06
-1.22692e-06
0.00253808
-0.000308668
0.00253092
-0.00029446
0.00252416
-0.000280069
0.0025178
-0.000265596
0.00251182
-0.000251137
0.00250623
-0.000236782
0.00250101
-0.000222614
0.00249615
-0.000208707
0.00249163
-0.00019513
0.00248745
-0.000181938
0.00248359
-0.00016918
0.00248004
-0.000156896
0.00247676
-0.000145117
0.00247377
-0.000133867
0.00247102
-0.000123163
0.00246852
-0.000113017
0.00246623
-0.000103432
0.00246416
-9.44103e-05
0.00246228
-8.59482e-05
0.00246058
-7.80387e-05
0.00245905
-7.06713e-05
0.00245766
-6.38328e-05
0.00245642
-5.75072e-05
0.00245531
-5.16763e-05
0.00245432
-4.63199e-05
0.00245343
-4.14158e-05
0.00245264
-3.69409e-05
0.00245194
-3.28707e-05
0.00245132
-2.91803e-05
0.00245077
-2.58443e-05
0.00245028
-2.28377e-05
0.00244986
-2.01357e-05
0.00244948
-1.7714e-05
0.00244915
-1.55494e-05
0.00244886
-1.36199e-05
0.00244861
-1.19038e-05
0.00244839
-1.03817e-05
0.0024482
-9.03511e-06
0.00244804
-7.84604e-06
0.0024479
-6.79979e-06
0.00244777
-5.87951e-06
0.00244767
-5.07516e-06
0.00244757
-4.36889e-06
0.00244749
-3.75824e-06
0.00244743
-3.21929e-06
0.00244737
-2.7645e-06
0.00244732
-2.35183e-06
0.00244728
-2.02666e-06
0.00244724
-1.70044e-06
0.00244721
-1.4947e-06
-1.20198e-06
0.00255655
-0.000301011
0.00254929
-0.000287204
0.00254244
-0.000273215
0.00253598
-0.00025914
0.00252992
-0.000245073
0.00252424
-0.000231103
0.00251894
-0.00021731
0.002514
-0.000203768
0.00250941
-0.000190541
0.00250516
-0.000177686
0.00250123
-0.000165251
0.0024976
-0.000153273
0.00249427
-0.000141785
0.00249122
-0.00013081
0.00248842
-0.000120365
0.00248586
-0.000110461
0.00248353
-0.000101104
0.00248142
-9.2294e-05
0.0024795
-8.40291e-05
0.00247776
-7.63023e-05
0.00247619
-6.91039e-05
0.00247478
-6.24213e-05
0.00247351
-5.6239e-05
0.00247238
-5.05395e-05
0.00247136
-4.53032e-05
0.00247045
-4.05087e-05
0.00246965
-3.61333e-05
0.00246893
-3.21533e-05
0.00246829
-2.85444e-05
0.00246773
-2.52821e-05
0.00246723
-2.23416e-05
0.0024668
-1.96988e-05
0.00246641
-1.73301e-05
0.00246608
-1.52127e-05
0.00246578
-1.33253e-05
0.00246553
-1.16466e-05
0.0024653
-1.01576e-05
0.00246511
-8.84017e-06
0.00246494
-7.67689e-06
0.00246479
-6.65327e-06
0.00246466
-5.75292e-06
0.00246455
-4.9659e-06
0.00246446
-4.27494e-06
0.00246438
-3.67738e-06
0.00246431
-3.15017e-06
0.00246425
-2.70499e-06
0.0024642
-2.30145e-06
0.00246416
-1.98291e-06
0.00246412
-1.66418e-06
0.00246409
-1.46223e-06
-1.17643e-06
0.00257512
-0.00029326
0.00256777
-0.000279856
0.00256083
-0.000266269
0.00255428
-0.000252594
0.00254813
-0.000238923
0.00254237
-0.00022534
0.00253698
-0.000211925
0.00253196
-0.000198749
0.0025273
-0.000185877
0.00252297
-0.000173363
0.00251898
-0.000161253
0.00251529
-0.000149586
0.0025119
-0.000138393
0.00250878
-0.000127696
0.00250593
-0.000117514
0.00250333
-0.000107856
0.00250095
-9.87292e-05
0.00249879
-9.01349e-05
0.00249683
-8.20704e-05
0.00249506
-7.45297e-05
0.00249346
-6.75035e-05
0.00249202
-6.09796e-05
0.00249072
-5.49434e-05
0.00248956
-4.93779e-05
0.00248852
-4.42642e-05
0.00248759
-3.95814e-05
0.00248677
-3.53076e-05
0.00248604
-3.14198e-05
0.00248539
-2.78943e-05
0.00248481
-2.4707e-05
0.0024843
-2.1834e-05
0.00248386
-1.92518e-05
0.00248346
-1.69373e-05
0.00248312
-1.48683e-05
0.00248282
-1.30238e-05
0.00248255
-1.13833e-05
0.00248232
-9.92819e-06
0.00248213
-8.64067e-06
0.00248195
-7.50376e-06
0.0024818
-6.5033e-06
0.00248167
-5.62334e-06
0.00248156
-4.85406e-06
0.00248146
-4.17876e-06
0.00248138
-3.59459e-06
0.00248131
-3.07939e-06
0.00248125
-2.64406e-06
0.0024812
-2.24987e-06
0.00248115
-1.93813e-06
0.00248112
-1.62704e-06
0.00248108
-1.42901e-06
-1.15025e-06
0.00259381
-0.000285414
0.00258637
-0.000272415
0.00257933
-0.000259232
0.00257269
-0.000245959
0.00256646
-0.000232685
0.00256061
-0.000219492
0.00255514
-0.000206458
0.00255004
-0.000193652
0.00254531
-0.000181138
0.00254091
-0.000168967
0.00253684
-0.000157187
0.00253309
-0.000145834
0.00252964
-0.000134939
0.00252647
-0.000124525
0.00252356
-0.000114608
0.00252091
-0.000105201
0.00251848
-9.63084e-05
0.00251628
-8.7933e-05
0.00251429
-8.00724e-05
0.00251248
-7.2721e-05
0.00251084
-6.58699e-05
0.00250937
-5.95078e-05
0.00250805
-5.36205e-05
0.00250686
-4.81916e-05
0.0025058
-4.32028e-05
0.00250485
-3.86341e-05
0.00250401
-3.4464e-05
0.00250326
-3.06702e-05
0.0025026
-2.72297e-05
0.00250201
-2.41192e-05
0.00250149
-2.13152e-05
0.00250103
-1.87948e-05
0.00250063
-1.65357e-05
0.00250028
-1.4516e-05
0.00249997
-1.27156e-05
0.0024997
-1.11141e-05
0.00249947
-9.69354e-06
0.00249926
-8.43658e-06
0.00249908
-7.32664e-06
0.00249893
-6.34987e-06
0.0024988
-5.49076e-06
0.00249868
-4.73964e-06
0.00249859
-4.08035e-06
0.0024985
-3.50988e-06
0.00249843
-3.00697e-06
0.00249837
-2.58172e-06
0.00249831
-2.19707e-06
0.00249827
-1.89232e-06
0.00249823
-1.58902e-06
0.0024982
-1.39503e-06
-1.12345e-06
0.00261261
-0.000277476
0.00260507
-0.000264882
0.00259795
-0.000252105
0.00259122
-0.000239236
0.0025849
-0.00022636
0.00257897
-0.00021356
0.00257342
-0.00020091
0.00256824
-0.000188477
0.00256343
-0.000176323
0.00255896
-0.0001645
0.00255483
-0.000153052
0.00255101
-0.000142017
0.0025475
-0.000131424
0.00254427
-0.000121296
0.00254131
-0.000111649
0.0025386
-0.000102496
0.00253614
-9.38413e-05
0.00253389
-8.56883e-05
0.00253186
-7.8035e-05
0.00253001
-7.0876e-05
0.00252834
-6.42034e-05
0.00252684
-5.80059e-05
0.00252549
-5.22702e-05
0.00252428
-4.69805e-05
0.0025232
-4.21191e-05
0.00252223
-3.76666e-05
0.00252137
-3.36023e-05
0.0025206
-2.99045e-05
0.00251992
-2.65508e-05
0.00251932
-2.35185e-05
0.00251879
-2.0785e-05
0.00251833
-1.83278e-05
0.00251791
-1.61252e-05
0.00251755
-1.4156e-05
0.00251724
-1.24004e-05
0.00251696
-1.08389e-05
0.00251672
-9.45364e-06
0.00251652
-8.22791e-06
0.00251633
-7.14554e-06
0.00251618
-6.19297e-06
0.00251604
-5.35518e-06
0.00251593
-4.62262e-06
0.00251582
-3.9797e-06
0.00251574
-3.42325e-06
0.00251566
-2.93289e-06
0.0025156
-2.51797e-06
0.00251555
-2.14306e-06
0.0025155
-1.84547e-06
0.00251546
-1.55011e-06
0.00251543
-1.36029e-06
-1.09602e-06
0.00263152
-0.000269446
0.0026239
-0.000257257
0.00261668
-0.000244888
0.00260987
-0.000232424
0.00260346
-0.00021995
0.00259744
-0.000207545
0.00259181
-0.000195281
0.00258656
-0.000183224
0.00258167
-0.000171434
0.00257713
-0.000159962
0.00257293
-0.00014885
0.00256905
-0.000138136
0.00256547
-0.000127849
0.00256219
-0.00011801
0.00255918
-0.000108637
0.00255642
-9.97409e-05
0.00255391
-9.13281e-05
0.00255162
-8.3401e-05
0.00254954
-7.59582e-05
0.00254766
-6.8995e-05
0.00254596
-6.25037e-05
0.00254443
-5.64739e-05
0.00254305
-5.08926e-05
0.00254182
-4.57447e-05
0.00254071
-4.10131e-05
0.00253972
-3.66791e-05
0.00253884
-3.27227e-05
0.00253806
-2.91227e-05
0.00253737
-2.58575e-05
0.00253676
-2.29051e-05
0.00253621
-2.02434e-05
0.00253574
-1.78507e-05
0.00253532
-1.57058e-05
0.00253495
-1.37882e-05
0.00253463
-1.20784e-05
0.00253435
-1.05576e-05
0.0025341
-9.20849e-06
0.00253389
-8.01467e-06
0.0025337
-6.96045e-06
0.00253354
-6.03262e-06
0.0025334
-5.2166e-06
0.00253328
-4.503e-06
0.00253318
-3.87681e-06
0.00253309
-3.3347e-06
0.00253302
-2.85715e-06
0.00253295
-2.4528e-06
0.0025329
-2.08784e-06
0.00253285
-1.79759e-06
0.00253281
-1.51033e-06
0.00253277
-1.3248e-06
-1.06796e-06
0.00265054
-0.000261325
0.00264283
-0.000249543
0.00263552
-0.000237581
0.00262862
-0.000225525
0.00262213
-0.000213455
0.00261603
-0.000201447
0.00261032
-0.000189572
0.00260499
-0.000177894
0.00260003
-0.000166471
0.00259542
-0.000155352
0.00259115
-0.000144581
0.00258721
-0.000134191
0.00258357
-0.000124213
0.00258023
-0.000114668
0.00257716
-0.000105572
0.00257436
-9.69365e-05
0.0025718
-8.87688e-05
0.00256947
-8.1071e-05
0.00256735
-7.38421e-05
0.00256543
-6.70779e-05
0.0025637
-6.07711e-05
0.00256214
-5.49118e-05
0.00256073
-4.94877e-05
0.00255947
-4.44842e-05
0.00255835
-3.98848e-05
0.00255734
-3.56715e-05
0.00255644
-3.1825e-05
0.00255564
-2.83248e-05
0.00255494
-2.51499e-05
0.00255431
-2.22789e-05
0.00255376
-1.96905e-05
0.00255327
-1.73636e-05
0.00255284
-1.52776e-05
0.00255247
-1.34125e-05
0.00255214
-1.17496e-05
0.00255185
-1.02704e-05
0.0025516
-8.9581e-06
0.00255138
-7.79685e-06
0.00255119
-6.77139e-06
0.00255103
-5.86881e-06
0.00255089
-5.07503e-06
0.00255076
-4.38081e-06
0.00255066
-3.77169e-06
0.00255057
-3.24423e-06
0.00255049
-2.77977e-06
0.00255042
-2.38622e-06
0.00255037
-2.03141e-06
0.00255032
-1.74868e-06
0.00255028
-1.46965e-06
0.00255024
-1.28855e-06
-1.03928e-06
0.00266968
-0.000253112
0.00266188
-0.000241738
0.00265448
-0.000230187
0.0026475
-0.00021854
0.00264092
-0.000206875
0.00263474
-0.000195266
0.00262895
-0.000183783
0.00262354
-0.000172487
0.0026185
-0.000161434
0.00261382
-0.000150672
0.00260949
-0.000140244
0.00260548
-0.000130183
0.00260178
-0.000120517
0.00259838
-0.000111269
0.00259527
-0.000102453
0.00259241
-9.40827e-05
0.00258981
-8.61635e-05
0.00258743
-7.86985e-05
0.00258528
-7.16869e-05
0.00258333
-6.51249e-05
0.00258156
-5.90056e-05
0.00257997
-5.33198e-05
0.00257854
-4.80555e-05
0.00257725
-4.3199e-05
0.0025761
-3.87342e-05
0.00257507
-3.46439e-05
0.00257416
-3.09094e-05
0.00257334
-2.75108e-05
0.00257262
-2.44279e-05
0.00257198
-2.164e-05
0.00257142
-1.91264e-05
0.00257092
-1.68665e-05
0.00257048
-1.48406e-05
0.0025701