/*--------------------------------*- C++ -*----------------------------------*\
  =========                 |
  \\      /  F ield         | OpenFOAM: The Open Source CFD Toolbox
   \\    /   O peration     | Website:  https://openfoam.org
    \\  /    A nd           | Version:  7
     \\/     M anipulation  |
\*---------------------------------------------------------------------------*/
FoamFile
{
    version     2.0;
    format      ascii;
    class       volScalarField;
    location    "15";
    object      p;
}
// * * * * * * * * * * * * * * * * * * * * * * * * * * * * * * * * * * * * * //

dimensions      [0 2 -2 0 0 0 0];

internalField   nonuniform List<scalar> 
6050
(
-0.31223
-0.316673
-0.317703
-0.319569
-0.321217
-0.322917
-0.324548
-0.312531
-0.316905
-0.31792
-0.319769
-0.321406
-0.323098
-0.324722
-0.313125
-0.317361
-0.318347
-0.320159
-0.321773
-0.323445
-0.325053
-0.313994
-0.318028
-0.318966
-0.320719
-0.322293
-0.323931
-0.325509
-0.315116
-0.318888
-0.319755
-0.321421
-0.322934
-0.324517
-0.326046
-0.316461
-0.319915
-0.320685
-0.322233
-0.323658
-0.32516
-0.326615
-0.32801
-0.317999
-0.321086
-0.321726
-0.323118
-0.324421
-0.325813
-0.327164
-0.328458
-0.319699
-0.322375
-0.322847
-0.32404
-0.325184
-0.326429
-0.327645
-0.328808
-0.321529
-0.323756
-0.324019
-0.324964
-0.325907
-0.326969
-0.328017
-0.329021
-0.323465
-0.325209
-0.325216
-0.325863
-0.326559
-0.3274
-0.32825
-0.329068
-0.325486
-0.326717
-0.326418
-0.326712
-0.327116
-0.3277
-0.328323
-0.328933
-0.327579
-0.328268
-0.327612
-0.3275
-0.327568
-0.327859
-0.328229
-0.328611
-0.328961
-0.329742
-0.329858
-0.328791
-0.328222
-0.32791
-0.327877
-0.327972
-0.328104
-0.328205
-0.33198
-0.331492
-0.329964
-0.328881
-0.328154
-0.327769
-0.327564
-0.327417
-0.32722
-0.334309
-0.333173
-0.331143
-0.329499
-0.328321
-0.327556
-0.327023
-0.326551
-0.325976
-0.33676
-0.334922
-0.332351
-0.330101
-0.328441
-0.327268
-0.326364
-0.325496
-0.324425
-0.322918
-0.33937
-0.336765
-0.333615
-0.330723
-0.328553
-0.326933
-0.325596
-0.324225
-0.322502
-0.320163
-0.342189
-0.338732
-0.334975
-0.331409
-0.328695
-0.326577
-0.324713
-0.322695
-0.320139
-0.316792
-0.312536
-0.345264
-0.340863
-0.336476
-0.332202
-0.328903
-0.32621
-0.323695
-0.320855
-0.317282
-0.312792
-0.307391
-0.348624
-0.343223
-0.338164
-0.333142
-0.329195
-0.325828
-0.322506
-0.318652
-0.313902
-0.308199
-0.30169
-0.294651
-0.352357
-0.345837
-0.340077
-0.334248
-0.329575
-0.325412
-0.321099
-0.316043
-0.310004
-0.303085
-0.295553
-0.28772
-0.356505
-0.348756
-0.342276
-0.335563
-0.330071
-0.324962
-0.319445
-0.313017
-0.305631
-0.297542
-0.289096
-0.280597
-0.272223
-0.36113
-0.352029
-0.344783
-0.337084
-0.330676
-0.324425
-0.317485
-0.309563
-0.300828
-0.291654
-0.282409
-0.273354
-0.264618
-0.366287
-0.355702
-0.34761
-0.338821
-0.331375
-0.32374
-0.315177
-0.305695
-0.295655
-0.285496
-0.275558
-0.266038
-0.257002
-0.248452
-0.372025
-0.359812
-0.350753
-0.340799
-0.332124
-0.322834
-0.312492
-0.301436
-0.290167
-0.279123
-0.268583
-0.258666
-0.249378
-0.240673
-0.23246
-0.378389
-0.364381
-0.354214
-0.343036
-0.332842
-0.321633
-0.309415
-0.296816
-0.284406
-0.272573
-0.261505
-0.251244
-0.241739
-0.232907
-0.224647
-0.216893
-0.385415
-0.369401
-0.358014
-0.345511
-0.333425
-0.320075
-0.305941
-0.291861
-0.278403
-0.265862
-0.254328
-0.243763
-0.23407
-0.225135
-0.216845
-0.209117
-0.201821
-0.393128
-0.374835
-0.362205
-0.348135
-0.333762
-0.31811
-0.302068
-0.286588
-0.272172
-0.258995
-0.247043
-0.236209
-0.226353
-0.217336
-0.209033
-0.201347
-0.194166
-0.187523
-0.401528
-0.380628
-0.366836
-0.350763
-0.33375
-0.3157
-0.297796
-0.281007
-0.265716
-0.251964
-0.239637
-0.228565
-0.218569
-0.209489
-0.20119
-0.19356
-0.1865
-0.180005
-0.173856
-0.168546
-0.410575
-0.386723
-0.371899
-0.353232
-0.333292
-0.312811
-0.29312
-0.275115
-0.259028
-0.244756
-0.232092
-0.22081
-0.210697
-0.201575
-0.193294
-0.185734
-0.1788
-0.172453
-0.166521
-0.161413
-0.420172
-0.393083
-0.377277
-0.355386
-0.332303
-0.309411
-0.288028
-0.268903
-0.252091
-0.23735
-0.224388
-0.212924
-0.20272
-0.193574
-0.185328
-0.17785
-0.171045
-0.164848
-0.159127
-0.154206
-0.430151
-0.399695
-0.38273
-0.357081
-0.330707
-0.305466
-0.282503
-0.262354
-0.244884
-0.229725
-0.216501
-0.204888
-0.194617
-0.18547
-0.177274
-0.169891
-0.163219
-0.157173
-0.151658
-0.14691
-0.440286
-0.406547
-0.387931
-0.358177
-0.32844
-0.300943
-0.276521
-0.255443
-0.237385
-0.221858
-0.208412
-0.196682
-0.186372
-0.177246
-0.169118
-0.161843
-0.155309
-0.149417
-0.144104
-0.139515
-0.450313
-0.413604
-0.39254
-0.358528
-0.325441
-0.295808
-0.270054
-0.248144
-0.229567
-0.213724
-0.200099
-0.188288
-0.177969
-0.168889
-0.160848
-0.153694
-0.147303
-0.141572
-0.136455
-0.132014
-0.459958
-0.420764
-0.396254
-0.357989
-0.321654
-0.290024
-0.26307
-0.240428
-0.221404
-0.205301
-0.191544
-0.17969
-0.169394
-0.160385
-0.152453
-0.145434
-0.139195
-0.13363
-0.128706
-0.124403
-0.468961
-0.427838
-0.398837
-0.356422
-0.31702
-0.283555
-0.255538
-0.232265
-0.212871
-0.196568
-0.182728
-0.170874
-0.160636
-0.151727
-0.143924
-0.137055
-0.130978
-0.125589
-0.120854
-0.116681
-0.47709
-0.434544
-0.400123
-0.353707
-0.311482
-0.276367
-0.247425
-0.223627
-0.203943
-0.187505
-0.173637
-0.161827
-0.151684
-0.142904
-0.135256
-0.128555
-0.122652
-0.117447
-0.112898
-0.108851
-0.484143
-0.440526
-0.399991
-0.349748
-0.304984
-0.268422
-0.238699
-0.214486
-0.194599
-0.178097
-0.164258
-0.15254
-0.14253
-0.133913
-0.126444
-0.119929
-0.114215
-0.109204
-0.10484
-0.100917
-0.489945
-0.445386
-0.398347
-0.344476
-0.297482
-0.25969
-0.229337
-0.204822
-0.184822
-0.168329
-0.15458
-0.143005
-0.133172
-0.12475
-0.117486
-0.111179
-0.105669
-0.100863
-0.0966826
-0.092888
-0.494308
-0.448719
-0.395101
-0.337843
-0.288939
-0.250145
-0.219315
-0.194617
-0.174599
-0.158194
-0.144599
-0.133219
-0.123605
-0.115414
-0.108384
-0.102306
-0.0970185
-0.0924291
-0.0884328
-0.0847739
-0.497032
-0.450161
-0.390152
-0.329806
-0.279313
-0.239752
-0.208608
-0.183851
-0.163917
-0.14768
-0.134307
-0.123177
-0.113827
-0.105905
-0.0991386
-0.0933121
-0.0882668
-0.083909
-0.0801032
-0.0765823
-0.498133
-0.449526
-0.383437
-0.320331
-0.268568
-0.22848
-0.197193
-0.172509
-0.152762
-0.13678
-0.123698
-0.112877
-0.103839
-0.0962245
-0.089753
-0.0842031
-0.0794194
-0.0753127
-0.0717133
-0.0683171
-0.497396
-0.446557
-0.37486
-0.309386
-0.256682
-0.216313
-0.185059
-0.160582
-0.141131
-0.125492
-0.112774
-0.102322
-0.0936446
-0.0863775
-0.0802358
-0.0749884
-0.0704874
-0.0666502
-0.0632706
-0.0599945
-0.494643
-0.441103
-0.364367
-0.296957
-0.243643
-0.203238
-0.172196
-0.148067
-0.129023
-0.113819
-0.101539
-0.0915174
-0.0832537
-0.076373
-0.0705962
-0.0656797
-0.061491
-0.0579399
-0.054749
-0.051653
-0.4897
-0.433062
-0.351916
-0.283033
-0.229446
-0.189249
-0.1586
-0.134962
-0.11644
-0.101769
-0.0900046
-0.080475
-0.072679
-0.0662266
-0.0608393
-0.0562847
-0.0524361
-0.0491793
-0.0461882
-0.0432984
-0.482387
-0.422369
-0.337484
-0.267613
-0.214088
-0.174341
-0.144272
-0.121274
-0.103401
-0.0893598
-0.0781889
-0.0692081
-0.0619208
-0.0559409
-0.050979
-0.0468166
-0.0433317
-0.0403821
-0.0376098
-0.0349441
-0.472522
-0.408989
-0.321066
-0.250698
-0.197564
-0.158522
-0.129233
-0.10703
-0.0899364
-0.0765998
-0.0660908
-0.0577235
-0.0509964
-0.0455294
-0.0410295
-0.0372891
-0.0341905
-0.0315642
-0.0290293
-0.0266074
-0.459935
-0.392912
-0.302675
-0.232293
-0.179876
-0.141827
-0.113528
-0.0922604
-0.0760297
-0.0635007
-0.05373
-0.0460376
-0.0399219
-0.035008
-0.0310055
-0.0277166
-0.0250272
-0.0227418
-0.0204615
-0.0183066
-0.444477
-0.374145
-0.282338
-0.212418
-0.161061
-0.124325
-0.0971582
-0.0769618
-0.0617133
-0.0500847
-0.0411275
-0.0341698
-0.0287152
-0.0243944
-0.0209235
-0.0181151
-0.0158576
-0.0139305
-0.0119228
-0.0100594
-0.426028
-0.352709
-0.260069
-0.191145
-0.141245
-0.105975
-0.0801464
-0.0611667
-0.0470165
-0.0363779
-0.0283068
-0.022142
-0.0173961
-0.0137076
-0.0108015
-0.00850153
-0.00669814
-0.00514697
-0.00343066
-0.00188358
-0.404512
-0.328657
-0.235845
-0.168614
-0.12044
-0.0868269
-0.062531
-0.0449123
-0.031972
-0.02241
-0.0152943
-0.00997828
-0.00598647
-0.00296792
-0.000658498
0.00110594
0.00243383
0.00359085
0.00499493
0.00620224
-0.379901
-0.302131
-0.209666
-0.144889
-0.0986766
-0.0669442
-0.0443588
-0.0282406
-0.0166164
-0.00821378
-0.00211937
0.00229502
0.00548986
0.00780291
0.00948525
0.0106886
0.0115203
0.0122636
0.0133322
0.0141782
-0.352215
-0.273359
-0.181845
-0.119738
-0.0760076
-0.046394
-0.0256844
-0.0111979
-0.000990523
0.00617459
0.011186
0.0146494
0.0170074
0.0185818
0.0196087
0.0202273
0.0205437
0.0208529
0.02156
0.0220237
-0.321527
-0.242386
-0.152386
-0.0934042
-0.0525088
-0.0252472
-0.00656902
0.00616384
0.0148607
0.0207157
0.0245871
0.0270541
0.0285387
0.029344
0.0296894
0.0297025
0.0294879
0.0293449
0.0296626
0.0297215
-0.287992
-0.20873
-0.121837
-0.0660686
-0.0282703
-0.00357903
0.0129206
0.0237881
0.0308884
0.035367
0.0380467
0.0394767
0.0400551
0.0400634
0.0397033
0.0390934
0.0383382
0.0377306
0.0376322
0.0372604
-0.251851
-0.172688
-0.0900652
-0.0378847
-0.00339774
0.0185282
0.0327127
0.0416134
0.0470401
0.050083
0.0515253
0.0518825
0.0515259
0.0507123
0.0496251
0.0483789
0.0470792
0.0459971
0.0454509
0.044623
-0.213177
-0.134733
-0.0571041
-0.00898365
0.021993
0.0409844
0.0527306
0.0595745
0.0632597
0.0648157
0.0649814
0.0642357
0.0629195
0.0612624
0.0594308
0.0575403
0.0556945
0.0541131
0.0530495
0.0517263
-0.17163
-0.0958597
-0.0231485
0.0205074
0.0477808
0.0636919
0.0728927
0.0776021
0.0794884
0.0795145
0.0783717
0.0764986
0.0742031
0.0716859
0.0690998
0.0665656
0.06417
0.0620269
0.0602877
0.0583424
-0.127965
-0.056011
0.0115746
0.0504457
0.073839
0.0865468
0.093113
0.0956239
0.0956649
0.0941274
0.0916515
0.0886327
0.0853433
0.0819557
0.0786144
0.0754458
0.0724915
0.0696862
0.067037
0.0642589
-0.0824492
-0.0152712
0.0468354
0.0806705
0.100035
0.109441
0.113302
0.113565
0.111727
0.108601
0.104775
0.100599
0.0963063
0.0920453
0.0879554
0.0841615
0.0806263
0.0770571
0.073364
0.0700024
-0.0352928
0.0261695
0.0824169
0.11102
0.126238
0.132264
0.133369
0.13135
0.127609
0.122881
0.117695
0.112355
0.107057
0.101927
0.0970973
0.0926732
0.0885152
0.0841438
0.0795647
0.0771088
0.0127277
0.0680106
0.11811
0.141339
0.152318
0.15491
0.153223
0.148901
0.143245
0.136909
0.130363
0.12386
0.117562
0.111571
0.106009
0.100937
0.0961167
0.091041
0.0860651
0.0840845
0.0612878
0.109988
0.153686
0.171442
0.178128
0.177256
0.172765
0.166135
0.158567
0.150628
0.142729
0.135072
0.127784
0.120947
0.114659
0.108929
0.103458
0.097817
0.0926272
0.0906387
0.11
0.151791
0.188911
0.201148
0.203522
0.199187
0.191898
0.182973
0.173506
0.163981
0.154744
0.145949
0.137689
0.13002
0.123012
0.116625
0.110545
0.104445
0.0990504
0.0967766
0.158455
0.193114
0.223553
0.230276
0.228356
0.220582
0.210524
0.199332
0.187996
0.17691
0.16636
0.15645
0.147239
0.138758
0.131042
0.124015
0.11737
0.110864
0.105222
0.102541
0.206246
0.233646
0.257381
0.258644
0.252484
0.241325
0.228547
0.215133
0.201967
0.189357
0.177527
0.166532
0.156399
0.147127
0.138721
0.131078
0.12391
0.117025
0.1111
0.10796
0.252969
0.273084
0.290166
0.286072
0.275762
0.261298
0.24587
0.230297
0.215355
0.201267
0.188198
0.176156
0.165132
0.155097
0.146026
0.137796
0.130138
0.12289
0.116663
0.113045
0.298229
0.311131
0.321684
0.312384
0.29805
0.280389
0.262401
0.244745
0.228093
0.212586
0.198327
0.18528
0.173404
0.162638
0.152931
0.144145
0.136027
0.128431
0.121898
0.117798
0.341643
0.347498
0.351718
0.337411
0.319212
0.298486
0.278049
0.258403
0.24012
0.22326
0.207869
0.193868
0.181181
0.169722
0.159411
0.150103
0.141553
0.133627
0.126792
0.122217
0.382846
0.381909
0.380059
0.360987
0.339117
0.315484
0.292727
0.2712
0.251376
0.233238
0.216781
0.201881
0.188433
0.176321
0.165444
0.155646
0.146694
0.138459
0.131333
0.126295
0.421499
0.414096
0.406509
0.382957
0.357641
0.331283
0.306355
0.283067
0.261803
0.242475
0.225023
0.209286
0.195128
0.182409
0.171007
0.160755
0.151432
0.142911
0.135509
0.130028
0.457282
0.443807
0.430881
0.403175
0.374667
0.345789
0.318854
0.293941
0.27135
0.250923
0.232556
0.216049
0.201239
0.187963
0.176077
0.16541
0.155748
0.146966
0.139308
0.133408
0.489894
0.470813
0.453002
0.421505
0.390088
0.358914
0.330153
0.303763
0.279966
0.258543
0.239345
0.22214
0.20674
0.192958
0.180636
0.169593
0.159627
0.15061
0.142717
0.136428
0.519062
0.494909
0.472715
0.437825
0.403804
0.370579
0.340187
0.31248
0.287607
0.265296
0.245358
0.227533
0.211607
0.197376
0.184665
0.173289
0.163053
0.15383
0.145726
0.139084
0.544539
0.515911
0.489881
0.452023
0.415729
0.380713
0.348899
0.320042
0.294233
0.271148
0.250567
0.232201
0.215819
0.201198
0.188149
0.176484
0.166015
0.156614
0.148325
0.141369
0.56611
0.533661
0.504375
0.464005
0.425786
0.389254
0.356237
0.326409
0.299808
0.276071
0.254947
0.236125
0.219358
0.204408
0.191074
0.179165
0.168501
0.15895
0.150505
0.143279
0.583592
0.548023
0.516096
0.473688
0.433909
0.39615
0.362159
0.331546
0.304304
0.280039
0.258476
0.239286
0.222208
0.206992
0.193428
0.181322
0.170501
0.16083
0.152257
0.144812
0.596836
0.55889
0.524959
0.481006
0.440046
0.401358
0.36663
0.335422
0.307697
0.283032
0.261137
0.241669
0.224356
0.208939
0.195202
0.182948
0.172008
0.162247
0.153577
0.145962
0.605731
0.566179
0.530901
0.485911
0.444157
0.404846
0.369624
0.338017
0.309968
0.285035
0.262918
0.243264
0.225793
0.210242
0.196388
0.184035
0.173015
0.163194
0.15446
0.146731
0.6102
0.569837
0.533882
0.488371
0.446219
0.406595
0.371125
0.339318
0.311106
0.286039
0.263811
0.244063
0.226513
0.210894
0.196983
0.184579
0.17352
0.163669
0.154902
0.147115
0.6102
0.569837
0.533882
0.488371
0.446219
0.406595
0.371125
0.339318
0.311106
0.286039
0.263811
0.244063
0.226513
0.210894
0.196983
0.184579
0.17352
0.163669
0.154902
0.147115
0.605731
0.566179
0.530901
0.485911
0.444157
0.404846
0.369624
0.338017
0.309968
0.285035
0.262918
0.243264
0.225793
0.210242
0.196388
0.184035
0.173015
0.163194
0.15446
0.146731
0.596836
0.55889
0.524959
0.481006
0.440046
0.401358
0.36663
0.335422
0.307697
0.283032
0.261137
0.241669
0.224356
0.208939
0.195202
0.182948
0.172008
0.162247
0.153577
0.145962
0.583592
0.548023
0.516096
0.473688
0.433909
0.39615
0.362159
0.331546
0.304304
0.280039
0.258476
0.239286
0.222208
0.206992
0.193428
0.181322
0.170501
0.16083
0.152257
0.144812
0.56611
0.533661
0.504375
0.464005
0.425786
0.389254
0.356237
0.326409
0.299808
0.276071
0.254947
0.236125
0.219358
0.204408
0.191074
0.179165
0.168501
0.15895
0.150505
0.143279
0.544539
0.515911
0.489881
0.452023
0.415729
0.380713
0.348899
0.320042
0.294233
0.271148
0.250567
0.232201
0.215819
0.201198
0.188149
0.176484
0.166015
0.156614
0.148325
0.141369
0.519062
0.494909
0.472715
0.437825
0.403804
0.370579
0.340187
0.312479
0.287607
0.265296
0.245358
0.227533
0.211607
0.197376
0.184665
0.173289
0.163053
0.15383
0.145726
0.139084
0.489894
0.470813
0.453002
0.421505
0.390088
0.358914
0.330153
0.303763
0.279966
0.258543
0.239345
0.22214
0.20674
0.192958
0.180636
0.169593
0.159627
0.15061
0.142717
0.136428
0.457282
0.443807
0.430881
0.403175
0.374667
0.345789
0.318854
0.293941
0.27135
0.250923
0.232556
0.216049
0.201239
0.187963
0.176077
0.16541
0.155748
0.146966
0.139308
0.133408
0.421499
0.414096
0.406509
0.382957
0.357641
0.331283
0.306355
0.283067
0.261803
0.242475
0.225023
0.209286
0.195128
0.182409
0.171007
0.160755
0.151432
0.142911
0.135509
0.130028
0.382846
0.381909
0.380059
0.360987
0.339117
0.315484
0.292727
0.2712
0.251376
0.233238
0.216781
0.201881
0.188433
0.176321
0.165444
0.155646
0.146694
0.138459
0.131333
0.126295
0.341643
0.347498
0.351718
0.337411
0.319212
0.298486
0.278049
0.258403
0.24012
0.223259
0.207869
0.193868
0.181181
0.169722
0.159411
0.150103
0.141553
0.133627
0.126792
0.122217
0.298229
0.31113
0.321684
0.312384
0.29805
0.280389
0.262401
0.244745
0.228093
0.212586
0.198327
0.18528
0.173404
0.162638
0.15293
0.144145
0.136027
0.128431
0.121898
0.117798
0.252969
0.273084
0.290166
0.286072
0.275762
0.261298
0.24587
0.230297
0.215354
0.201267
0.188198
0.176156
0.165132
0.155097
0.146026
0.137796
0.130138
0.12289
0.116663
0.113045
0.206246
0.233646
0.257381
0.258644
0.252484
0.241325
0.228547
0.215133
0.201967
0.189357
0.177527
0.166532
0.156399
0.147127
0.138721
0.131078
0.12391
0.117025
0.1111
0.10796
0.158455
0.193114
0.223553
0.230276
0.228356
0.220582
0.210524
0.199332
0.187996
0.17691
0.16636
0.15645
0.147239
0.138758
0.131042
0.124015
0.11737
0.110864
0.105222
0.102541
0.11
0.151791
0.188911
0.201148
0.203522
0.199187
0.191898
0.182973
0.173506
0.163981
0.154744
0.145949
0.137689
0.13002
0.123012
0.116625
0.110545
0.104444
0.0990503
0.0967766
0.0612877
0.109987
0.153686
0.171442
0.178128
0.177256
0.172765
0.166135
0.158567
0.150628
0.142729
0.135072
0.127784
0.120947
0.114659
0.108929
0.103458
0.0978169
0.0926272
0.0906386
0.0127276
0.0680105
0.11811
0.141339
0.152318
0.15491
0.153223
0.148901
0.143245
0.136909
0.130363
0.12386
0.117562
0.111571
0.106009
0.100937
0.0961167
0.091041
0.086065
0.0840845
-0.035293
0.0261694
0.0824168
0.11102
0.126238
0.132264
0.133369
0.13135
0.127608
0.122881
0.117695
0.112355
0.107057
0.101927
0.0970972
0.0926731
0.0885152
0.0841438
0.0795647
0.0771088
-0.0824493
-0.0152713
0.0468353
0.0806704
0.100035
0.109441
0.113302
0.113565
0.111727
0.108601
0.104775
0.100598
0.0963062
0.0920452
0.0879554
0.0841614
0.0806263
0.0770571
0.0733639
0.0700023
-0.127965
-0.0560111
0.0115745
0.0504456
0.073839
0.0865467
0.093113
0.0956238
0.0956648
0.0941273
0.0916514
0.0886327
0.0853432
0.0819557
0.0786144
0.0754458
0.0724914
0.0696862
0.0670369
0.0642589
-0.17163
-0.0958598
-0.0231486
0.0205073
0.0477807
0.0636918
0.0728927
0.077602
0.0794883
0.0795144
0.0783716
0.0764986
0.0742031
0.0716858
0.0690997
0.0665655
0.06417
0.0620269
0.0602876
0.0583424
-0.213178
-0.134733
-0.0571042
-0.00898375
0.0219929
0.0409843
0.0527305
0.0595744
0.0632596
0.0648156
0.0649814
0.0642356
0.0629195
0.0612623
0.0594308
0.0575402
0.0556945
0.054113
0.0530495
0.0517262
-0.251852
-0.172688
-0.0900653
-0.0378848
-0.00339784
0.0185281
0.0327126
0.0416134
0.04704
0.050083
0.0515253
0.0518825
0.0515259
0.0507122
0.0496251
0.0483788
0.0470791
0.045997
0.0454508
0.0446229
-0.287992
-0.20873
-0.121837
-0.0660687
-0.0282704
-0.00357912
0.0129205
0.023788
0.0308884
0.0353669
0.0380466
0.0394766
0.040055
0.0400633
0.0397032
0.0390934
0.0383382
0.0377305
0.0376322
0.0372604
-0.321527
-0.242386
-0.152386
-0.0934043
-0.0525089
-0.0252473
-0.00656911
0.00616376
0.0148606
0.0207156
0.024587
0.0270541
0.0285387
0.029344
0.0296893
0.0297025
0.0294879
0.0293449
0.0296626
0.0297214
-0.352215
-0.273359
-0.181845
-0.119739
-0.0760077
-0.0463941
-0.0256845
-0.011198
-0.000990603
0.00617451
0.0111859
0.0146493
0.0170073
0.0185817
0.0196086
0.0202273
0.0205436
0.0208529
0.0215599
0.0220237
-0.379901
-0.302131
-0.209666
-0.144889
-0.0986767
-0.0669443
-0.0443589
-0.0282407
-0.0166165
-0.00821386
-0.00211945
0.00229495
0.0054898
0.00780285
0.00948519
0.0106885
0.0115202
0.0122636
0.0133322
0.0141781
-0.404512
-0.328657
-0.235845
-0.168615
-0.12044
-0.086827
-0.0625311
-0.0449124
-0.0319721
-0.0224101
-0.0152944
-0.00997835
-0.00598654
-0.00296798
-0.000658558
0.00110588
0.00243378
0.0035908
0.00499488
0.00620219
-0.426028
-0.35271
-0.260069
-0.191145
-0.141245
-0.105975
-0.0801465
-0.0611668
-0.0470166
-0.036378
-0.0283069
-0.0221421
-0.0173962
-0.0137077
-0.0108015
-0.00850159
-0.0066982
-0.00514702
-0.0034307
-0.00188363
-0.444477
-0.374145
-0.282338
-0.212418
-0.161061
-0.124326
-0.0971583
-0.0769619
-0.0617134
-0.0500847
-0.0411276
-0.0341699
-0.0287153
-0.0243945
-0.0209236
-0.0181151
-0.0158577
-0.0139306
-0.0119228
-0.0100594
-0.459935
-0.392912
-0.302675
-0.232293
-0.179876
-0.141827
-0.113528
-0.0922605
-0.0760298
-0.0635008
-0.0537301
-0.0460376
-0.039922
-0.0350081
-0.0310056
-0.0277167
-0.0250273
-0.0227418
-0.0204616
-0.0183067
-0.472522
-0.408989
-0.321066
-0.250698
-0.197565
-0.158522
-0.129233
-0.10703
-0.0899365
-0.0765999
-0.0660909
-0.0577236
-0.0509965
-0.0455294
-0.0410296
-0.0372891
-0.0341905
-0.0315643
-0.0290293
-0.0266075
-0.482387
-0.422369
-0.337485
-0.267613
-0.214088
-0.174341
-0.144272
-0.121274
-0.103402
-0.0893599
-0.0781889
-0.0692082
-0.0619209
-0.055941
-0.0509791
-0.0468167
-0.0433318
-0.0403821
-0.0376099
-0.0349441
-0.4897
-0.433063
-0.351917
-0.283033
-0.229446
-0.189249
-0.1586
-0.134962
-0.116441
-0.101769
-0.0900046
-0.0804751
-0.0726791
-0.0662267
-0.0608393
-0.0562847
-0.0524362
-0.0491794
-0.0461882
-0.0432985
-0.494643
-0.441103
-0.364367
-0.296957
-0.243643
-0.203238
-0.172197
-0.148067
-0.129023
-0.113819
-0.101539
-0.0915175
-0.0832538
-0.0763731
-0.0705963
-0.0656798
-0.061491
-0.05794
-0.0547491
-0.0516531
-0.497397
-0.446557
-0.37486
-0.309386
-0.256682
-0.216313
-0.185059
-0.160583
-0.141131
-0.125492
-0.112775
-0.102322
-0.0936447
-0.0863775
-0.0802358
-0.0749885
-0.0704875
-0.0666503
-0.0632706
-0.0599945
-0.498133
-0.449527
-0.383437
-0.320331
-0.268568
-0.22848
-0.197193
-0.172509
-0.152762
-0.13678
-0.123698
-0.112877
-0.103839
-0.0962246
-0.0897531
-0.0842032
-0.0794194
-0.0753127
-0.0717133
-0.0683171
-0.497032
-0.450162
-0.390152
-0.329806
-0.279313
-0.239752
-0.208608
-0.183852
-0.163917
-0.14768
-0.134307
-0.123177
-0.113827
-0.105905
-0.0991386
-0.0933122
-0.0882668
-0.0839091
-0.0801032
-0.0765824
-0.494308
-0.448719
-0.395102
-0.337844
-0.288939
-0.250145
-0.219315
-0.194617
-0.174599
-0.158194
-0.144599
-0.133219
-0.123605
-0.115414
-0.108384
-0.102306
-0.0970186
-0.0924292
-0.0884328
-0.0847739
-0.489945
-0.445386
-0.398347
-0.344476
-0.297483
-0.259691
-0.229337
-0.204822
-0.184822
-0.168329
-0.154581
-0.143005
-0.133172
-0.12475
-0.117487
-0.111179
-0.105669
-0.100863
-0.0966826
-0.092888
-0.484143
-0.440526
-0.399991
-0.349748
-0.304985
-0.268422
-0.2387
-0.214486
-0.194599
-0.178097
-0.164258
-0.15254
-0.142531
-0.133913
-0.126444
-0.119929
-0.114215
-0.109204
-0.10484
-0.100917
-0.47709
-0.434544
-0.400123
-0.353707
-0.311482
-0.276367
-0.247425
-0.223627
-0.203943
-0.187505
-0.173637
-0.161827
-0.151684
-0.142904
-0.135256
-0.128555
-0.122652
-0.117447
-0.112898
-0.108851
-0.468961
-0.427838
-0.398838
-0.356422
-0.31702
-0.283555
-0.255539
-0.232265
-0.212871
-0.196568
-0.182729
-0.170874
-0.160636
-0.151727
-0.143924
-0.137055
-0.130978
-0.125589
-0.120854
-0.116681
-0.459958
-0.420764
-0.396254
-0.357989
-0.321654
-0.290024
-0.263071
-0.240428
-0.221405
-0.205301
-0.191544
-0.17969
-0.169394
-0.160385
-0.152453
-0.145434
-0.139195
-0.13363
-0.128706
-0.124403
-0.450313
-0.413604
-0.392541
-0.358528
-0.325442
-0.295808
-0.270054
-0.248144
-0.229567
-0.213724
-0.200099
-0.188288
-0.177969
-0.168889
-0.160848
-0.153694
-0.147303
-0.141572
-0.136455
-0.132014
-0.440286
-0.406548
-0.387932
-0.358177
-0.32844
-0.300944
-0.276521
-0.255443
-0.237385
-0.221858
-0.208412
-0.196682
-0.186372
-0.177246
-0.169118
-0.161843
-0.155309
-0.149417
-0.144104
-0.139515
-0.430151
-0.399695
-0.38273
-0.357081
-0.330707
-0.305466
-0.282503
-0.262354
-0.244885
-0.229726
-0.216501
-0.204888
-0.194617
-0.18547
-0.177274
-0.169891
-0.163219
-0.157173
-0.151658
-0.14691
-0.420172
-0.393084
-0.377278
-0.355386
-0.332303
-0.309411
-0.288028
-0.268904
-0.252091
-0.237351
-0.224388
-0.212924
-0.20272
-0.193575
-0.185328
-0.17785
-0.171045
-0.164848
-0.159127
-0.154206
-0.410576
-0.386723
-0.371899
-0.353232
-0.333292
-0.312811
-0.29312
-0.275116
-0.259028
-0.244756
-0.232093
-0.22081
-0.210697
-0.201575
-0.193294
-0.185734
-0.1788
-0.172453
-0.166521
-0.161413
-0.401528
-0.380628
-0.366836
-0.350763
-0.33375
-0.315701
-0.297797
-0.281007
-0.265717
-0.251965
-0.239637
-0.228565
-0.218569
-0.209489
-0.20119
-0.19356
-0.1865
-0.180005
-0.173856
-0.168546
-0.393128
-0.374835
-0.362205
-0.348135
-0.333762
-0.318111
-0.302069
-0.286588
-0.272173
-0.258995
-0.247043
-0.236209
-0.226353
-0.217336
-0.209033
-0.201347
-0.194166
-0.187523
-0.385415
-0.369401
-0.358015
-0.345511
-0.333425
-0.320075
-0.305941
-0.291861
-0.278403
-0.265862
-0.254328
-0.243763
-0.23407
-0.225135
-0.216845
-0.209117
-0.201821
-0.378389
-0.364381
-0.354214
-0.343036
-0.332842
-0.321633
-0.309416
-0.296816
-0.284407
-0.272573
-0.261506
-0.251244
-0.241739
-0.232907
-0.224647
-0.216893
-0.372026
-0.359813
-0.350753
-0.340799
-0.332124
-0.322834
-0.312493
-0.301436
-0.290167
-0.279124
-0.268584
-0.258666
-0.249378
-0.240673
-0.23246
-0.366287
-0.355702
-0.34761
-0.338821
-0.331375
-0.323741
-0.315178
-0.305695
-0.295655
-0.285496
-0.275558
-0.266038
-0.257002
-0.248452
-0.36113
-0.352029
-0.344783
-0.337084
-0.330676
-0.324426
-0.317485
-0.309564
-0.300828
-0.291654
-0.282409
-0.273355
-0.264618
-0.356505
-0.348756
-0.342276
-0.335563
-0.330071
-0.324962
-0.319445
-0.313018
-0.305631
-0.297543
-0.289096
-0.280597
-0.272223
-0.352358
-0.345837
-0.340078
-0.334249
-0.329575
-0.325413
-0.3211
-0.316043
-0.310004
-0.303086
-0.295553
-0.28772
-0.348624
-0.343223
-0.338164
-0.333142
-0.329196
-0.325828
-0.322506
-0.318652
-0.313902
-0.3082
-0.30169
-0.294652
-0.345264
-0.340863
-0.336477
-0.332202
-0.328903
-0.32621
-0.323695
-0.320856
-0.317282
-0.312792
-0.307391
-0.342189
-0.338732
-0.334975
-0.331409
-0.328696
-0.326577
-0.324713
-0.322696
-0.32014
-0.316792
-0.312536
-0.339371
-0.336765
-0.333615
-0.330724
-0.328553
-0.326934
-0.325596
-0.324225
-0.322502
-0.320163
-0.33676
-0.334922
-0.332351
-0.330101
-0.328441
-0.327268
-0.326364
-0.325496
-0.324425
-0.322919
-0.33431
-0.333173
-0.331143
-0.329499
-0.328321
-0.327556
-0.327023
-0.326551
-0.325976
-0.33198
-0.331492
-0.329964
-0.328882
-0.328154
-0.327769
-0.327565
-0.327417
-0.32722
-0.329742
-0.329859
-0.328791
-0.328222
-0.32791
-0.327877
-0.327972
-0.328104
-0.328205
-0.327579
-0.328268
-0.327612
-0.3275
-0.327568
-0.327859
-0.328229
-0.328611
-0.328961
-0.325486
-0.326717
-0.326418
-0.326713
-0.327117
-0.327701
-0.328323
-0.328933
-0.323465
-0.325209
-0.325216
-0.325863
-0.326559
-0.3274
-0.32825
-0.329068
-0.321529
-0.323757
-0.324019
-0.324964
-0.325907
-0.326969
-0.328017
-0.329021
-0.319699
-0.322375
-0.322848
-0.32404
-0.325184
-0.326429
-0.327645
-0.328808
-0.317999
-0.321087
-0.321726
-0.323118
-0.324422
-0.325813
-0.327164
-0.328458
-0.316461
-0.319915
-0.320685
-0.322233
-0.323658
-0.325161
-0.326615
-0.328011
-0.315116
-0.318888
-0.319755
-0.321421
-0.322935
-0.324518
-0.326046
-0.313994
-0.318028
-0.318966
-0.320719
-0.322293
-0.323931
-0.325509
-0.313125
-0.317361
-0.318347
-0.320159
-0.321773
-0.323445
-0.325053
-0.312532
-0.316905
-0.31792
-0.319769
-0.321406
-0.323098
-0.324722
-0.31223
-0.316673
-0.317703
-0.319569
-0.321217
-0.322917
-0.324548
-0.0829026
-0.0908782
-0.0987878
-0.106617
-0.114357
-0.121999
-0.129538
-0.136972
-0.144304
-0.151533
-0.158674
-0.082381
-0.0902578
-0.0980689
-0.1058
-0.11344
-0.12098
-0.128414
-0.135739
-0.142956
-0.150062
-0.15707
-0.0818526
-0.089598
-0.0972746
-0.104867
-0.112365
-0.119757
-0.127038
-0.134201
-0.141246
-0.148168
-0.154979
-0.0813166
-0.0889417
-0.0964972
-0.103968
-0.111342
-0.118608
-0.12576
-0.132789
-0.139697
-0.146474
-0.153134
-0.0807738
-0.0882831
-0.0957239
-0.10308
-0.11034
-0.117492
-0.124529
-0.131443
-0.138235
-0.144894
-0.151434
-0.0802256
-0.0876171
-0.094941
-0.102181
-0.109324
-0.11636
-0.123281
-0.130077
-0.13675
-0.143287
-0.149705
-0.0796724
-0.0869435
-0.0941476
-0.101267
-0.108291
-0.115205
-0.122004
-0.128676
-0.135222
-0.141628
-0.147911
-0.079115
-0.0862639
-0.0933462
-0.100344
-0.107245
-0.114035
-0.120708
-0.127251
-0.133666
-0.139937
-0.146078
-0.0785545
-0.0855799
-0.0925388
-0.0994129
-0.106189
-0.112854
-0.119399
-0.125812
-0.132094
-0.138227
-0.144225
-0.077992
-0.0848927
-0.0917272
-0.0984763
-0.105127
-0.111664
-0.11808
-0.124362
-0.130508
-0.136503
-0.142355
-0.0774287
-0.0842039
-0.0909129
-0.0975359
-0.104059
-0.110468
-0.116753
-0.122902
-0.128911
-0.134766
-0.140472
-0.0768661
-0.0835152
-0.0900978
-0.0965938
-0.102989
-0.109267
-0.115421
-0.121435
-0.127305
-0.13302
-0.138578
-0.0763055
-0.0828283
-0.0892839
-0.0956523
-0.101918
-0.108066
-0.114086
-0.119965
-0.125696
-0.131269
-0.136679
-0.0757485
-0.0821451
-0.0884736
-0.0947141
-0.10085
-0.106867
-0.112754
-0.118497
-0.124088
-0.129518
-0.134779
-0.0751968
-0.0814676
-0.0876693
-0.0937819
-0.0997887
-0.105674
-0.111427
-0.117034
-0.122486
-0.127772
-0.132887
-0.0746523
-0.0807982
-0.0868736
-0.0928587
-0.0987365
-0.104491
-0.110111
-0.115582
-0.120895
-0.126039
-0.131008
-0.135793
-0.0741168
-0.0801392
-0.0860894
-0.0919481
-0.0976976
-0.103322
-0.10881
-0.114146
-0.119321
-0.124324
-0.12915
-0.133786
-0.0735928
-0.0794934
-0.08532
-0.0910535
-0.0966763
-0.102172
-0.107529
-0.112732
-0.117772
-0.122636
-0.127321
-0.131812
-0.0730826
-0.0788637
-0.0845687
-0.090179
-0.0956772
-0.101047
-0.106275
-0.111347
-0.116254
-0.120983
-0.125531
-0.129881
-0.0725889
-0.0782533
-0.0838395
-0.0893293
-0.0947053
-0.0999512
-0.105054
-0.109999
-0.114777
-0.119374
-0.123788
-0.128003
-0.072115
-0.0776659
-0.0831366
-0.0885091
-0.0937665
-0.0988921
-0.103873
-0.108695
-0.113348
-0.117819
-0.122105
-0.126191
-0.0716643
-0.0771057
-0.0824649
-0.0877241
-0.0928669
-0.0978767
-0.102741
-0.107444
-0.111978
-0.116329
-0.120493
-0.124458
-0.0712408
-0.0765773
-0.0818297
-0.0869805
-0.0920137
-0.0969129
-0.101665
-0.106257
-0.110678
-0.114915
-0.118965
-0.122816
-0.070849
-0.0760858
-0.081237
-0.0862852
-0.0912147
-0.0960096
-0.100657
-0.105143
-0.109459
-0.113592
-0.117536
-0.121283
-0.070494
-0.0756375
-0.0806939
-0.0856461
-0.0904787
-0.0951766
-0.0997268
-0.104116
-0.108335
-0.112372
-0.116221
-0.119873
-0.0701816
-0.0752389
-0.0802081
-0.0850721
-0.0898158
-0.0944249
-0.0988867
-0.103189
-0.107321
-0.111272
-0.115037
-0.118607
-0.0699183
-0.0748977
-0.0797885
-0.0845733
-0.0892374
-0.0937674
-0.0981509
-0.102376
-0.106432
-0.110311
-0.114004
-0.117504
-0.0697123
-0.0746227
-0.0794446
-0.0841603
-0.0887556
-0.0932177
-0.0975349
-0.101696
-0.10569
-0.109508
-0.113143
-0.116589
-0.0695686
-0.0744208
-0.079184
-0.0838408
-0.088378
-0.0927843
-0.0970482