/*--------------------------------*- C++ -*----------------------------------*\
  =========                 |
  \\      /  F ield         | OpenFOAM: The Open Source CFD Toolbox
   \\    /   O peration     | Website:  https://openfoam.org
    \\  /    A nd           | Version:  7
     \\/     M anipulation  |
\*---------------------------------------------------------------------------*/
FoamFile
{
    version     2.0;
    format      ascii;
    class       volVectorField;
    location    "15";
    object      U;
}
// * * * * * * * * * * * * * * * * * * * * * * * * * * * * * * * * * * * * * //

dimensions      [0 1 -1 0 0 0 0];

internalField   nonuniform List<vector> 
6050
(
(-0.0070864 0.00270076 -3.8897e-20)
(-0.0300375 0.00466411 -4.71855e-20)
(-0.0612814 0.00522286 5.91187e-21)
(-0.0892798 0.00522963 -1.53045e-20)
(-0.115272 0.00504878 7.47318e-20)
(-0.138527 0.00485501 2.36759e-20)
(-0.159741 0.0047037 -3.31678e-20)
(-0.00737138 0.00804163 1.99251e-21)
(-0.0302441 0.0139037 -2.97593e-20)
(-0.0610349 0.0155757 -6.27105e-20)
(-0.0884289 0.0155927 5.0954e-20)
(-0.113665 0.0150438 3.26964e-20)
(-0.136011 0.0144506 5.0198e-21)
(-0.156131 0.0139793 9.59127e-20)
(-0.00793274 0.013205 -1.10543e-20)
(-0.0306562 0.022882 -4.26112e-20)
(-0.0605547 0.0256525 6.1496e-20)
(-0.0867539 0.0256705 4.77747e-20)
(-0.110497 0.0247349 -1.61797e-19)
(-0.131051 0.0237084 2.10959e-20)
(-0.149022 0.0228675 -1.61244e-19)
(-0.00875413 0.018083 5.56839e-20)
(-0.0312708 0.0314343 2.25762e-19)
(-0.0598645 0.0352757 -7.41771e-20)
(-0.0843055 0.0352784 -1.52372e-19)
(-0.105851 0.033927 -8.84819e-20)
(-0.123779 0.0324151 1.23519e-19)
(-0.13862 0.0311284 1.55039e-19)
(-0.00981275 0.0225804 -1.51462e-19)
(-0.0320836 0.0394078 -4.4115e-20)
(-0.0589959 0.044276 1.32967e-19)
(-0.0811517 0.0442394 6.97853e-20)
(-0.0998398 0.0424349 3.43649e-19)
(-0.114369 0.0403726 -3.1982e-19)
(-0.125187 0.0385466 -1.80057e-19)
(-0.011081 0.0266186 9.8579e-20)
(-0.0330872 0.0466659 8.05937e-21)
(-0.0579845 0.0524959 -2.47617e-19)
(-0.0773692 0.0523867 -1.23272e-19)
(-0.0925891 0.0500861 -4.05694e-19)
(-0.103007 0.0474024 -1.48327e-20)
(-0.108995 0.0449371 -2.13551e-20)
(-0.110608 0.0428416 -3.55929e-20)
(-0.0125285 0.0301387 -2.51941e-19)
(-0.0342709 0.0530922 -4.52629e-19)
(-0.0568635 0.0597926 1.64626e-19)
(-0.0730319 0.0595661 -4.5979e-20)
(-0.0842149 0.0567233 3.65198e-19)
(-0.0898592 0.0533483 3.5249e-19)
(-0.0902709 0.0501487 -1.21405e-19)
(-0.0854338 0.0473085 1.69017e-19)
(-0.0141244 0.0331032 1.86725e-19)
(-0.0356189 0.0585924 2.08416e-19)
(-0.0556573 0.0660405 1.45481e-19)
(-0.068197 0.0656385 5.21328e-19)
(-0.0748019 0.0622062 -1.16076e-19)
(-0.0750303 0.058078 1.76512e-19)
(-0.0691306 0.0540661 2.30309e-19)
(-0.0570205 0.0503929 -2.90576e-19)
(-0.0158391 0.0354963 -9.15876e-20)
(-0.0371086 0.0630962 5.47298e-20)
(-0.0543728 0.0711339 -4.42276e-19)
(-0.0628889 0.0704824 -2.54829e-19)
(-0.064375 0.0664139 -2.04483e-19)
(-0.0585194 0.0614857 -1.14547e-19)
(-0.0455116 0.056613 -5.63237e-19)
(-0.0251941 0.0520655 1.02111e-19)
(-0.0176463 0.0373226 3.498e-19)
(-0.038708 0.0665581 4.06156e-19)
(-0.0529901 0.0749894 1.07494e-19)
(-0.0570803 0.0739969 4.43725e-19)
(-0.0528674 0.0692494 1.2403e-19)
(-0.0401707 0.0634968 2.7831e-19)
(-0.0191013 0.0577593 3.14147e-19)
(0.0106003 0.052366 2.90583e-19)
(-0.0195234 0.0386049 -2.19134e-19)
(-0.0403727 0.0689571 -3.68872e-19)
(-0.0514516 0.077548 6.46598e-19)
(-0.0506706 0.0761068 -6.66717e-19)
(-0.0400852 0.0706454 -4.78639e-19)
(-0.0196191 0.064077 -2.06032e-19)
(0.0107342 0.0575347 -9.02703e-20)
(0.0513734 0.0514242 -4.9709e-19)
(-0.0214524 0.0393811 2.05105e-19)
(-0.0420414 0.0702948 1.63455e-19)
(-0.0496498 0.0787784 -7.51204e-19)
(-0.043462 0.0767669 -2.542e-19)
(-0.0256674 0.070573 2.70472e-19)
(0.00376345 0.063249 -1.43438e-19)
(0.0450104 0.0560544 3.91095e-19)
(0.0986222 0.0494956 3.7261e-19)
(0.165004 0.0437502 -4.88038e-19)
(-0.0234187 0.0396991 -6.57221e-19)
(-0.043631 0.0705931 -6.43342e-19)
(-0.0474151 0.07868 4.80966e-19)
(-0.0351341 0.0759691 3.06777e-19)
(-0.00904587 0.0690562 1.64261e-19)
(0.0309178 0.0611157 -1.34394e-19)
(0.0851511 0.0535537 -2.42759e-19)
(0.154268 0.0470075 1.22299e-19)
(0.238388 0.0417512 1.54658e-20)
(-0.0254097 0.0396127 1.01644e-19)
(-0.0450288 0.0698899 6.75509e-19)
(-0.0445002 0.0772817 -2.12924e-19)
(-0.0252216 0.0737543 -2.75402e-20)
(0.0105891 0.0661917 -2.14311e-19)
(0.0631227 0.057889 -8.09065e-20)
(0.132948 0.0504316 7.26821e-20)
(0.220435 0.0446019 2.38751e-19)
(0.324766 0.040732 6.67578e-20)
(-0.0274123 0.039177 5.73871e-19)
(-0.0460906 0.06824 -1.67554e-19)
(-0.0405637 0.0746427 -4.31595e-19)
(-0.013088 0.07022 5.7755e-19)
(0.0343091 0.0621677 5.12474e-19)
(0.101974 0.0539272 3.71209e-19)
(0.190399 0.047291 3.41937e-19)
(0.299004 0.0431461 -1.17859e-19)
(0.424916 0.0417369 2.18143e-19)
(-0.0294073 0.0384412 -1.81062e-19)
(-0.0466346 0.0657112 1.00669e-19)
(-0.0351643 0.0708569 2.50077e-19)
(0.00208833 0.0655275 -7.00723e-19)
(0.0634439 0.0572888 -1.1954e-19)
(0.149284 0.0497683 -5.99857e-19)
(0.259374 0.0449526 2.44856e-19)
(0.390922 0.0436648 -5.8725e-19)
(0.537517 0.0457488 2.29587e-19)
(0.689806 0.0501654 -5.43462e-19)
(-0.0313622 0.0374433 5.72903e-21)
(-0.046432 0.0623759 4.47457e-19)
(-0.0277552 0.0660562 -1.18777e-19)
(0.0213127 0.0599177 -4.07885e-20)
(0.0995291 0.0519997 1.3529e-19)
(0.206862 0.0461487 4.6776e-19)
(0.341076 0.0444061 -2.30475e-19)
(0.495365 0.0471492 -2.08034e-19)
(0.658482 0.0533597 1.37654e-19)
(0.81733 0.0610626 3.06746e-19)
(-0.0332244 0.0362052 -4.8389e-20)
(-0.0452035 0.058313 -4.34908e-20)
(-0.0176808 0.0604099 5.05584e-19)
(0.0457538 0.053719 2.62806e-19)
(0.144189 0.0469036 -2.39469e-19)
(0.276144 0.0439819 6.92365e-20)
(0.435349 0.0466582 7.65885e-20)
(0.609111 0.0542517 6.79919e-19)
(0.781172 0.0644616 -5.73526e-19)
(0.936587 0.0744362 -8.14582e-19)
(1.06528 0.0819711 -8.03236e-19)
(-0.034917 0.0347359 4.12371e-20)
(-0.0426177 0.0536087 -5.6557e-19)
(-0.00418196 0.0541212 1.49494e-19)
(0.0766969 0.0473597 -5.06659e-19)
(0.198929 0.0427665 6.47373e-19)
(0.35767 0.0442644 -4.38816e-19)
(0.540062 0.0524708 1.79174e-20)
(0.72658 0.0649852 -3.66442e-20)
(0.89777 0.0781734 -4.54622e-19)
(1.04016 0.0888168 1.11657e-18)
(1.1482 0.0951243 4.71919e-19)
(-0.0363545 0.0330535 -2.97772e-19)
(-0.0382723 0.0483336 3.90414e-19)
(0.0135893 0.0474311 -3.44607e-19)
(0.115456 0.041386 -3.8047e-19)
(0.264807 0.040493 -7.09149e-19)
(0.450521 0.0478843 2.80641e-19)
(0.650929 0.0620716 -1.94794e-19)
(0.840864 0.0786287 -5.66482e-19)
(1.00137 0.0931273 4.92132e-19)
(1.12386 0.102781 -3.98004e-19)
(1.20879 0.106775 5.74156e-19)
(1.26218 0.10556 6.60442e-19)
(-0.0374323 0.0311524 1.55038e-18)
(-0.0317172 0.0425547 -3.96848e-19)
(0.036545 0.040644 3.51779e-19)
(0.163227 0.0364871 4.32528e-19)
(0.342012 0.0410319 6.68791e-19)
(0.551946 0.0553541 -3.55585e-19)
(0.762127 0.0750018 2.10017e-19)
(0.945456 0.0939525 -2.84646e-19)
(1.0877 0.107963 -5.25191e-19)
(1.18716 0.115387 2.72071e-19)
(1.24999 0.116599 -4.87207e-19)
(1.28543 0.112913 -3.08708e-19)
(-0.0380136 0.0290169 -1.08894e-18)
(-0.0224669 0.0363715 4.7499e-19)
(0.0656348 0.0341308 -5.03219e-20)
(0.220881 0.0334661 -2.47453e-19)
(0.429426 0.0451467 -7.44398e-19)
(0.657499 0.0665614 5.3171e-19)
(0.867563 0.0902211 -4.84325e-19)
(1.03575 0.109637 2.14599e-19)
(1.15554 0.121714 2.65104e-19)
(1.23218 0.12627 -1.13135e-18)
(1.27595 0.124728 2.18102e-19)
(1.29757 0.118942 3.91675e-20)
(1.3057 0.110636 4.79418e-19)
(-0.0379454 0.0266321 -7.9472e-20)
(-0.00999068 0.0298851 -7.14679e-19)
(0.101799 0.028338 3.96498e-19)
(0.288707 0.0331627 2.64298e-19)
(0.524504 0.0531768 -2.16095e-19)
(0.761996 0.0807955 -6.73397e-19)
(0.962471 0.106506 4.55187e-19)
(1.10986 0.124683 -1.18284e-19)
(1.2062 0.13394 8.60396e-20)
(1.26233 0.135487 7.09105e-19)
(1.29082 0.131495 -3.80751e-19)
(1.30237 0.124043 -3.52801e-19)
(1.30456 0.114733 -3.24165e-19)
(-0.0370483 0.0239795 -3.3646e-20)
(0.00628128 0.0232227 4.18311e-19)
(0.145857 0.0238502 -7.42292e-19)
(0.366054 0.0363294 1.48704e-19)
(0.623425 0.0649224 5.17044e-19)
(0.860541 0.0970186 9.81676e-20)
(1.044 0.122815 1.56786e-19)
(1.16798 0.138529 2.84956e-19)
(1.24219 0.144585 -3.22722e-19)
(1.2811 0.1433 -2.40509e-19)
(1.29796 0.137263 4.48729e-19)
(1.3025 0.128545 8.34447e-19)
(1.30089 0.118537 9.29531e-20)
(1.29653 0.107989 -3.29984e-19)
(-0.0351215 0.0210466 8.16528e-20)
(0.0269518 0.0165645 7.85091e-19)
(0.198355 0.0213928 -2.41413e-19)
(0.451144 0.0433978 6.66932e-19)
(0.721829 0.079694 -5.49159e-19)
(0.949497 0.114178 6.53104e-19)
(1.11126 0.138442 -5.34371e-19)
(1.21173 0.150975 3.48233e-19)
(1.26642 0.153812 -2.2802e-19)
(1.29158 0.150028 2.38779e-20)
(1.29994 0.142352 -2.7006e-19)
(1.29978 0.132693 -4.72516e-19)
(1.29581 0.122195 -2.34269e-19)
(1.29036 0.111437 1.633e-19)
(1.28443 0.100795 5.54801e-20)
(-0.0319458 0.017833 -7.39083e-19)
(0.0526417 0.0101817 -7.08173e-19)
(0.259366 0.0217624 5.54406e-19)
(0.54118 0.0543181 -3.3706e-20)
(0.815702 0.0965652 7.83018e-19)
(1.02683 0.13144 -4.75036e-19)
(1.16482 0.153019 2.07743e-19)
(1.24333 0.162059 -2.70279e-19)
(1.28161 0.161877 5.09751e-19)
(1.29622 0.155976 -2.04138e-19)
(1.29857 0.147015 2.00927e-19)
(1.29534 0.136655 -1.36704e-20)
(1.28994 0.125799 1.58723e-19)
(1.28387 0.114878 -2.09424e-20)
(1.27769 0.104131 2.4495e-19)
(1.27158 0.0935438 5.04712e-20)
(-0.0272812 0.0143546 1.06148e-18)
(0.0839492 0.00448404 -6.86207e-19)
(0.328281 0.0256584 1.76238e-19)
(0.63278 0.0685938 -6.97966e-19)
(0.902019 0.114645 -4.9296e-19)
(1.09193 0.148259 5.39935e-20)
(1.20608 0.166428 9.74455e-20)
(1.26509 0.171945 -2.74277e-19)
(1.2901 0.169053 5.00299e-20)
(1.29687 0.161401 3.91849e-19)
(1.29509 0.151435 -2.89899e-19)
(1.2899 0.140538 -1.74697e-19)
(1.28363 0.129397 -9.65939e-20)
(1.2772 0.118323 -8.71797e-20)
(1.27088 0.107482 -1.12257e-19)
(1.26473 0.0968682 2.11852e-19)
(1.25869 0.086859 -1.03737e-19)
(-0.0208613 0.0106503 -2.52348e-19)
(0.121372 5.87322e-05 6.37147e-19)
(0.403716 0.033477 3.82761e-19)
(0.722602 0.0854868 -4.36459e-19)
(0.978945 0.133234 5.42449e-19)
(1.14519 0.164335 -3.23401e-21)
(1.23679 0.178706 4.92016e-19)
(1.27914 0.180848 3.22241e-19)
(1.29374 0.175589 2.87063e-19)
(1.29482 0.166503 -2.77524e-19)
(1.29028 0.15574 1.94756e-19)
(1.28385 0.144406 2.06246e-19)
(1.27706 0.133011 3.47145e-19)
(1.27042 0.121781 -1.84054e-19)
(1.26403 0.110821 -2.32777e-22)
(1.25788 0.100175 -1.78157e-19)
(1.2519 0.0900156 6.96941e-21)
(1.24618 0.0798384 -7.9572e-20)
(-0.0123879 0.00679361 -2.29963e-19)
(0.165186 -0.00234017 -2.57399e-19)
(0.483615 0.0451938 -1.34101e-20)
(0.807852 0.104246 4.13729e-19)
(1.0457 0.151848 -4.05641e-19)
(1.1876 0.179545 -4.44538e-19)
(1.25875 0.189974 1.70592e-19)
(1.28729 0.18899 -2.01983e-19)
(1.29395 0.181696 -1.28801e-19)
(1.291 0.171431 5.05639e-20)
(1.28462 0.160008 -4.41156e-19)
(1.27742 0.148291 4.07999e-19)
(1.27032 0.13665 -3.95794e-20)
(1.26355 0.125244 -9.15678e-20)
(1.25713 0.114153 8.27895e-20)
(1.25099 0.103412 -1.26619e-19)
(1.24509 0.0931434 -1.13133e-19)
(1.23946 0.0829985 -6.75729e-21)
(1.23373 0.0744275 -8.42219e-20)
(1.22943 0.0634476 1.59458e-19)
(-0.00153221 0.00290897 2.64724e-19)
(0.215323 -0.00188403 4.67349e-19)
(0.565543 0.0604209 -6.34419e-19)
(0.886544 0.124243 -2.37045e-19)
(1.10227 0.170185 -1.07999e-19)
(1.22046 0.19388 6.22692e-19)
(1.27363 0.200395 -1.66699e-19)
(1.29102 0.196575 -1.04477e-19)
(1.29173 0.18754 -1.45512e-19)
(1.28599 0.176283 1.75422e-19)
(1.2784 0.164288 6.52333e-20)
(1.27072 0.152208 -7.65665e-20)
(1.26342 0.14031 -2.06388e-19)
(1.25659 0.128708 2.11412e-20)
(1.25016 0.117459 -8.99414e-20)
(1.24406 0.106604 1.6184e-19)
(1.23825 0.0961846 3.9983e-20)
(1.23272 0.0860549 4.20692e-20)
(1.22721 0.077173 5.74142e-20)
(1.22285 0.0663697 -1.68041e-19)
(0.0120488 -0.000807553 -4.97897e-19)
(0.271272 0.0021649 -2.92971e-20)
(0.647034 0.0785831 -9.6885e-20)
(0.957485 0.145011 2.80161e-19)
(1.14916 0.188076 -9.74685e-20)
(1.2451 0.207398 -2.7373e-19)
(1.28289 0.210137 -3.86407e-19)
(1.29146 0.203777 2.72269e-19)
(1.28782 0.193241 -3.21249e-19)
(1.28016 0.181123 1.60293e-19)
(1.2718 0.168601 9.47209e-20)
(1.2638 0.156158 -5.01529e-20)
(1.25639 0.143985 1.18506e-19)
(1.24952 0.132163 1.33812e-19)
(1.24311 0.120735 -2.85981e-19)
(1.23707 0.109727 2.15798e-19)
(1.23136 0.0991635 1.91935e-20)
(1.22594 0.0889841 3.74793e-20)
(1.22064 0.0797907 1.81961e-19)
(1.21623 0.0691552 4.56032e-20)
(0.0286741 -0.00407024 1.48097e-19)
(0.332082 0.0102834 -6.06445e-19)
(0.725892 0.0990894 5.74185e-19)
(1.02013 0.166219 2.63337e-19)
(1.18715 0.205438 -1.97453e-19)
(1.26282 0.220193 -3.27369e-19)
(1.28773 0.219361 1.11883e-20)
(1.28948 0.210735 -6.50833e-20)
(1.28269 0.198883 5.52928e-19)
(1.27374 0.185987 -2.53255e-19)
(1.26488 0.172954 -2.92269e-20)
(1.2567 0.160136 6.74793e-20)
(1.24922 0.147665 -4.21734e-20)
(1.24235 0.135598 -8.69776e-20)
(1.23598 0.123967 2.46296e-19)
(1.23001 0.112786 -2.03735e-19)
(1.2244 0.10206 2.51754e-20)
(1.2191 0.0917955 -1.16232e-19)
(1.21398 0.0823031 -1.23362e-19)
(1.20958 0.0717861 -4.0118e-20)
(0.0485868 -0.00650012 -1.06469e-19)
(0.396451 0.0225985 2.53639e-19)
(0.800364 0.121421 -2.32277e-19)
(1.07442 0.187637 -2.42312e-19)
(1.21716 0.222248 4.04586e-19)
(1.27479 0.232371 4.31707e-19)
(1.28914 0.228206 2.09814e-19)
(1.28569 0.217552 -3.60375e-21)
(1.27668 0.20452 -5.43789e-19)
(1.26687 0.19089 4.61266e-20)
(1.2577 0.177343 1.75188e-20)
(1.2494 0.164129 1.18829e-19)
(1.2419 0.151336 1.95955e-19)
(1.23505 0.139003 -1.03381e-20)
(1.22874 0.127148 -4.51614e-20)
(1.22287 0.115772 1.83069e-19)
(1.21737 0.104877 -1.20383e-19)
(1.2122 0.0944871 1.48789e-19)
(1.20725 0.0847033 -1.34274e-20)
(1.20288 0.0742857 1.54138e-19)
(0.0719038 -0.00764543 1.85727e-19)
(0.462871 0.0389195 9.92344e-20)
(0.869201 0.145148 -2.27986e-19)
(1.12056 0.209092 -2.84299e-19)
(1.24014 0.238517 -2.02126e-20)
(1.28203 0.244043 -4.73598e-20)
(1.28786 0.236786 2.34807e-19)
(1.28053 0.2243 1.64429e-19)
(1.26999 0.210178 1.77755e-19)
(1.25962 0.195832 -6.49636e-20)
(1.25026 0.181757 8.61891e-20)
(1.24191 0.168122 -7.95424e-20)
(1.23442 0.154985 -1.62607e-19)
(1.22763 0.142365 1.9845e-20)
(1.22139 0.130267 4.27805e-20)
(1.21563 0.11868 5.12177e-20)
(1.21026 0.107604 6.86012e-20)
(1.20521 0.0970595 -4.14406e-20)
(1.20043 0.0870038 8.05951e-20)
(1.19612 0.0766568 -1.8624e-19)
(0.0985797 -0.00702805 2.45069e-19)
(0.529786 0.0588523 -2.25319e-20)
(0.931614 0.169921 3.20204e-19)
(1.15899 0.230449 1.96828e-19)
(1.25699 0.254276 8.88533e-20)
(1.28539 0.255306 -2.19014e-19)
(1.28448 0.24519 -2.09011e-19)
(1.27431 0.231025 -5.84549e-20)
(1.26273 0.215866 -1.58748e-20)
(1.25202 0.200802 -1.55342e-20)
(1.24256 0.186177 -2.07711e-19)
(1.23421 0.1721 4.58033e-20)
(1.22677 0.158597 8.32927e-20)
(1.22005 0.145671 2.56662e-21)
(1.21392 0.133313 1.0149e-20)
(1.20828 0.121503 -2.60403e-20)
(1.20305 0.110238 -6.36935e-20)
(1.19815 0.0995137 -5.31568e-20)
(1.19353 0.0892035 -1.11436e-19)
(1.1893 0.0789078 1.71253e-20)
(0.128395 -0.00420728 -1.50541e-19)
(0.595716 0.0819212 9.50837e-20)
(0.987205 0.195459 -3.96777e-20)
(1.19023 0.251598 9.32868e-21)
(1.26854 0.269562 -3.65188e-19)
(1.28558 0.266246 9.0976e-20)
(1.27943 0.253476 5.89762e-20)
(1.26723 0.237746 -4.10211e-20)
(1.25497 0.221577 1.473e-19)
(1.24407 0.205783 -2.45962e-21)
(1.2346 0.190586 6.51782e-20)
(1.2263 0.176042 7.66642e-20)
(1.21894 0.162154 -5.27224e-20)
(1.21233 0.148908 -6.25684e-20)
(1.20633 0.136277 -3.42228e-20)
(1.20082 0.124234 -3.68197e-20)
(1.19574 0.11277 3.24871e-20)
(1.19099 0.101849 3.76487e-20)
(1.18654 0.0913078 6.09276e-20)
(1.18241 0.0810435 7.06382e-20)
(0.160969 0.00115875 -7.01585e-20)
(0.659339 0.107648 -1.40641e-20)
(1.03586 0.221529 -1.29076e-19)
(1.21486 0.272447 1.20707e-19)
(1.27553 0.284411 2.62233e-19)
(1.28314 0.276928 1.4418e-19)
(1.27301 0.261681 -6.5282e-20)
(1.25942 0.244466 -3.83917e-20)
(1.24676 0.227296 -8.73286e-20)
(1.23579 0.210752 8.43796e-20)
(1.22636 0.194958 -3.28755e-21)
(1.21816 0.179929 -4.22995e-20)
(1.21092 0.16564 -5.00645e-20)
(1.20445 0.152059 -4.82371e-20)
(1.19859 0.139146 1.00658e-19)
(1.19325 0.126864 -3.42684e-20)
(1.18833 0.115194 -3.7319e-20)
(1.18374 0.104065 -6.46543e-21)
(1.17947 0.0933163 -6.64995e-21)
(1.17543 0.0830667 -3.93143e-20)
(0.19579 0.00927351 -6.97004e-21)
(0.719537 0.13558 -9.43343e-20)
(1.07766 0.247939 4.41275e-20)
(1.23348 0.292921 -1.58567e-19)
(1.27858 0.298853 -1.11608e-19)
(1.27854 0.287396 1.67589e-20)
(1.26545 0.26982 -1.64756e-21)
(1.25095 0.25117 7.46279e-21)
(1.23809 0.232995 2.37481e-20)
(1.22716 0.21568 4.22527e-20)
(1.21784 0.199269 -5.7665e-20)
(1.20978 0.183737 2.46862e-20)
(1.2027 0.169035 4.33512e-20)
(1.1964 0.15511 -9.50875e-21)
(1.19073 0.141909 -4.25286e-20)
(1.18556 0.129383 2.39823e-20)
(1.18082 0.117502 2.76177e-20)
(1.17641 0.106161 2.81491e-20)
(1.1723 0.0952295 -1.43891e-20)
(1.16838 0.0849796 5.20816e-21)
(0.232254 0.0201955 7.78345e-20)
(0.775413 0.165296 -1.09874e-19)
(1.11283 0.274516 -1.51358e-20)
(1.24664 0.312957 6.48646e-20)
(1.27825 0.312908 1.05431e-19)
(1.27209 0.297674 -3.25124e-20)
(1.25689 0.277887 -9.3377e-20)
(1.24186 0.257835 9.30733e-20)
(1.22899 0.238643 -2.52575e-20)
(1.21818 0.220538 -2.92475e-20)
(1.20903 0.203492 2.67599e-20)
(1.20116 0.187445 -1.33611e-20)
(1.19428 0.172319 -3.92364e-21)
(1.18819 0.158045 1.05645e-20)
(1.18272 0.144551 1.52617e-20)
(1.17775 0.131782 1.96995e-20)
(1.1732 0.119686 -3.53478e-20)
(1.16898 0.108135 -8.81908e-21)
(1.16505 0.0970447 -2.203e-21)
(1.16124 0.0867813 1.07738e-20)
(0.269667 0.0338608 -4.27173e-20)
(0.826289 0.196397 7.6352e-20)
(1.14164 0.301097 -9.58352e-21)
(1.25492 0.332504 -2.08568e-20)
(1.27499 0.326583 -6.86205e-20)
(1.26408 0.307768 3.23716e-20)
(1.24746 0.285864 2.13895e-20)
(1.2322 0.264426 -2.37812e-20)
(1.21944 0.244205 -3.91263e-21)
(1.20884 0.225292 1.14337e-20)
(1.19993 0.207599 -1.24621e-20)
(1.1923 0.191027 6.30359e-21)
(1.18566 0.175473 -1.37728e-20)
(1.1798 0.160846 7.93154e-21)
(1.17456 0.14706 1.64815e-21)
(1.16983 0.134048 -7.33428e-21)
(1.16548 0.121739 4.23275e-21)
(1.16147 0.109983 -6.64949e-21)
(1.15771 0.0987577 2.18549e-21)
(1.15403 0.0884702 7.83644e-21)
(0.307247 0.0501133 -3.06676e-20)
(0.871687 0.228501 6.68522e-20)
(1.16441 0.327518 -7.08222e-21)
(1.2588 0.351514 -2.6819e-20)
(1.26918 0.339877 -6.31767e-20)
(1.25468 0.317667 3.18968e-20)
(1.2372 0.29372 2.08421e-20)
(1.22196 0.270904 -1.87834e-20)
(1.20944 0.249641 -2.16466e-22)
(1.19914 0.229909 8.95143e-21)
(1.19052 0.211559 -7.92866e-21)
(1.18318 0.194458 -2.17554e-21)
(1.17683 0.178474 -4.81825e-21)
(1.17125 0.163495 2.90028e-21)
(1.16627 0.14942 1.88831e-21)
(1.16178 0.13617 -7.4782e-21)
(1.15767 0.123651 8.39543e-21)
(1.15387 0.111703 -8.11652e-21)
(1.1503 0.100362 -1.98858e-21)
(1.14675 0.0900412 5.15793e-21)
(0.344224 0.0687054 8.87892e-20)
(0.911238 0.261205 -9.0146e-20)
(1.18138 0.35359 -6.54232e-20)
(1.25868 0.369936 8.56759e-20)
(1.26111 0.352779 9.81264e-20)
(1.24403 0.32735 -4.01725e-20)
(1.22616 0.30142 -6.68796e-20)
(1.21114 0.27723 7.35601e-20)
(1.19899 0.254916 -2.06221e-20)
(1.18906 0.234357 -2.41693e-20)
(1.18081 0.215346 1.90098e-20)
(1.17382 0.197717 -3.68059e-21)
(1.1678 0.181304 -9.01145e-21)
(1.16253 0.165978 2.90545e-21)
(1.15784 0.15162 1.40156e-20)
(1.15362 0.138137 1.65003e-20)
(1.14976 0.125414 -2.0825e-20)
(1.1462 0.113286 -5.55493e-21)
(1.14283 0.101854 -3.62589e-21)
(1.1394 0.0914924 7.83764e-21)
(0.380059 0.089414 3.95562e-20)
(0.945007 0.294243 -1.43237e-19)
(1.19302 0.379201 4.03926e-20)
(1.25503 0.387734 -1.06234e-19)
(1.25104 0.365258 -1.24514e-19)
(1.23224 0.336766 2.02893e-20)
(1.21437 0.308901 8.0394e-21)
(1.19976 0.283343 -8.14106e-21)
(1.18808 0.259976 2.743e-20)
(1.1786 0.238589 -1.12437e-21)
(1.17079 0.218922 -1.80994e-20)
(1.16421 0.200768 3.66248e-21)
(1.15856 0.183935 3.56568e-20)
(1.15364 0.168269 -3.04333e-21)
(1.14928 0.153639 -1.23197e-20)
(1.14535 0.139933 -7.16553e-21)
(1.14176 0.127014 3.15913e-20)
(1.13847 0.114719 1.36664e-20)
(1.13531 0.10323 -8.11335e-21)
(1.13198 0.0928263 -9.54874e-21)
(0.414129 0.111997 -8.77889e-20)
(0.972956 0.327325 -1.71174e-20)
(1.19963 0.404188 -1.26119e-19)
(1.24818 0.404847 1.4222e-19)
(1.23917 0.377272 1.77837e-19)
(1.21939 0.345865 6.93903e-20)
(1.20184 0.316111 -1.28102e-20)
(1.18781 0.289195 1.46172e-20)
(1.17671 0.264781 -7.44812e-20)
(1.16778 0.242572 5.38133e-20)
(1.16047 0.222256 -1.64022e-20)
(1.15435 0.203589 -1.26045e-20)
(1.14913 0.186345 -3.45429e-20)
(1.1446 0.17035 -1.05695e-20)
(1.1406 0.155462 1.65736e-20)
(1.13699 0.141549 -1.08602e-20)
(1.1337 0.128442 -1.43669e-20)
(1.13068 0.115993 4.18672e-21)
(1.12772 0.104483 -2.63411e-21)
(1.12453 0.0940374 -2.22062e-20)
(0.445856 0.136189 -1.29719e-19)
(0.995158 0.360175 2.50972e-20)
(1.20157 0.428401 6.10048e-20)
(1.23842 0.421215 -6.71734e-20)
(1.22568 0.388771 -2.43812e-19)
(1.20554 0.354585 2.05293e-20)
(1.1886 0.322987 8.87932e-20)
(1.17529 0.29473 -3.29344e-20)
(1.16489 0.269279 7.15443e-20)
(1.15659 0.246264 -1.90343e-20)
(1.14985 0.225313 4.81728e-20)
(1.14426 0.206147 6.60352e-21)
(1.13952 0.18851 7.05167e-22)
(1.13542 0.172202 -2.92435e-20)
(1.1318 0.15707 -1.35846e-20)
(1.12853 0.142964 -6.41262e-21)
(1.12557 0.129683 6.21903e-21)
(1.12285 0.117114 1.02702e-20)
(1.12008 0.105598 1.83194e-20)
(1.11707 0.0951079 3.16842e-20)
(0.47474 0.161709 1.65442e-19)
(1.01174 0.392533 6.19324e-20)
(1.19913 0.45169 2.07062e-19)
(1.22603 0.436767 1.01338e-19)
(1.21069 0.399691 8.00041e-20)
(1.19072 0.362858 -1.045e-19)
(1.17464 0.329462 -9.37998e-20)
(1.16222 0.29989 -3.16803e-20)
(1.15262 0.273425 -1.77426e-20)
(1.14505 0.249624 -3.87447e-20)
(1.13896 0.228061 -6.0013e-20)
(1.13395 0.208415 -1.07737e-21)
(1.12973 0.190405 2.80845e-20)
(1.12609 0.173807 5.48078e-20)
(1.12289 0.158449 -5.50829e-20)
(1.12 0.144164 1.18697e-20)
(1.11739 0.130731 -1.58596e-20)
(1.11497 0.118067 -6.41064e-21)
(1.11241 0.106565 -3.63668e-20)
(1.10959 0.0960319 -7.313e-21)
(0.500364 0.18825 3.63773e-19)
(1.02286 0.424145 -3.45047e-20)
(1.19264 0.47391 -1.62455e-19)
(1.21123 0.451427 -2.236e-19)
(1.1943 0.409963 -4.86639e-20)
(1.17499 0.370611 -1.96073e-22)
(1.16 0.33547 1.26328e-19)
(1.14861 0.304615 1.01808e-19)
(1.13994 0.277169 6.83083e-20)
(1.13318 0.252611 -2.78899e-20)
(1.1278 0.230466 2.13917e-20)
(1.12342 0.210368 -1.99939e-20)
(1.11977 0.192006 -3.72879e-20)
(1.11664 0.175141 1.41896e-20)
(1.11388 0.15958 -4.88517e-21)
(1.11141 0.145136 1.29775e-20)
(1.10917 0.131571 1.88312e-20)
(1.10707 0.118842 -4.35354e-21)
(1.10474 0.107371 2.37331e-20)
(1.10213 0.0967997 -1.7949e-20)
(0.522392 0.215488 -2.29186e-19)
(1.02872 0.454764 2.75341e-19)
(1.18239 0.494918 -1.22595e-19)
(1.19423 0.46511 -5.83791e-20)
(1.17661 0.419505 1.83927e-19)
(1.15838 0.377763 1.78177e-19)
(1.14472 0.340943 6.0139e-20)
(1.1345 0.308849 -4.67704e-20)
(1.12686 0.280464 -9.92965e-20)
(1.12097 0.255192 -1.61455e-21)
(1.11638 0.232494 1.174e-20)
(1.11269 0.211974 2.65329e-20)
(1.10966 0.193291 2.43147e-20)
(1.10707 0.176185 -8.61008e-21)
(1.1048 0.160445 1.69319e-20)
(1.10276 0.145864 6.45548e-21)
(1.10092 0.132193 -9.60918e-21)
(1.09915 0.119426 1.50809e-20)
(1.09708 0.108004 1.40626e-20)
(1.0947 0.0974037 7.63925e-21)
(0.540575 0.243075 3.69085e-20)
(1.02953 0.484145 -4.91088e-19)
(1.16866 0.514573 3.06427e-19)
(1.1752 0.47773 1.88359e-19)
(1.1577 0.428224 -1.89965e-20)
(1.14098 0.384232 -1.5337e-19)
(1.12882 0.34581 -1.31467e-20)
(1.11989 0.312541 -3.27411e-20)
(1.11337 0.283264 1.0305e-19)
(1.10846 0.257321 -8.4963e-21)
(1.10472 0.234112 -1.87786e-20)
(1.10178 0.213207 5.9244e-21)
(1.09941 0.194235 -6.51694e-21)
(1.09741 0.176917 -4.84814e-21)
(1.09566 0.161026 2.13244e-20)
(1.09407 0.146334 -3.02855e-20)
(1.09265 0.132585 2.57585e-21)
(1.09124 0.119806 -7.48055e-21)
(1.08943 0.10845 -7.22075e-21)
(1.08732 0.0978353 8.70268e-22)
(0.554745 0.270655 -4.60692e-19)
(1.02553 0.51204 4.71698e-20)
(1.1517 0.532733 -1.03878e-19)
(1.15432 0.4892 1.3488e-19)
(1.13771 0.436036 -2.60101e-20)
(1.1228 0.389929 -1.06915e-19)
(1.11231 0.350011 -1.06952e-19)
(1.10481 0.31563 2.15258e-20)
(1.09951 0.285523 -2.23523e-20)
(1.09566 0.258961 2.02855e-20)
(1.09285 0.235288 2.66361e-20)
(1.09071 0.214039 -1.80756e-20)
(1.08905 0.194815 -2.76986e-21)
(1.08767 0.17732 1.37194e-20)
(1.08646 0.161308 -1.91825e-20)
(1.08537 0.146533 5.13891e-21)
(1.08438 0.132734 7.80506e-21)
(1.08334 0.119971 -1.80249e-22)
(1.08182 0.108698 1.58598e-21)
(1.08 0.0980861 5.59951e-22)
(0.564812 0.297864 2.09038e-19)
(1.01695 0.538208 4.44812e-19)
(1.13174 0.549231 -4.40505e-19)
(1.1318 0.499424 2.52602e-20)
(1.11673 0.442863 -1.04372e-19)
(1.10386 0.394775 2.09657e-19)
(1.09523 0.353469 -6.10182e-20)
(1.08928 0.318062 -5.16889e-21)
(1.08532 0.287194 -1.81419e-20)
(1.08261 0.260074 2.2129e-20)
(1.08078 0.23599 -4.73784e-21)
(1.07951 0.214444 -1.01376e-20)
(1.07859 0.19501 2.66786e-22)
(1.07787 0.177373 -3.70882e-21)
(1.07724 0.161272 4.55463e-21)
(1.07666 0.146446 -7.16936e-21)
(1.07613 0.132629 3.88731e-23)
(1.07548 0.119907 -4.98338e-21)
(1.07427 0.108735 -4.92515e-21)
(1.07277 0.0981489 3.93725e-21)
(0.570769 0.324347 -1.62804e-19)
(1.00408 0.562441 -1.57631e-19)
(1.10896 0.563874 7.13864e-20)
(1.10785 0.508301 1.52171e-20)
(1.0948 0.448625 -1.34781e-20)
(1.08423 0.398699 -1.39327e-19)
(1.07763 0.356121 4.84456e-20)
(1.07336 0.319784 -3.88975e-20)
(1.07083 0.288236 3.74408e-21)
(1.06934 0.260626 -9.56557e-21)
(1.06856 0.236188 3.24552e-21)
(1.06819 0.214396 -3.54382e-21)
(1.06806 0.194797 7.23748e-21)
(1.06803 0.177058 1.86163e-21)
(1.06801 0.160904 -1.92614e-22)
(1.06797 0.146061 -5.5351e-21)
(1.06792 0.132258 5.17193e-21)
(1.06768 0.119602 4.03727e-21)
(1.0668 0.108549 8.99143e-21)
(1.06565 0.0980187 6.52245e-21)
(0.572679 0.349747 -3.79135e-19)
(0.987273 0.584581 5.57551e-19)
(1.08367 0.576553 1.83614e-19)
(1.08248 0.515639 -1.29569e-19)
(1.07198 0.45324 9.82323e-20)
(1.06397 0.401627 2.87996e-20)
(1.05956 0.357901 3.06724e-20)
(1.05709 0.320745 -1.48716e-21)
(1.05608 0.288606 7.75075e-21)
(1.05587 0.260581 -4.05659e-21)
(1.0562 0.235856 -3.26033e-21)
(1.05678 0.213873 -1.01975e-20)
(1.05748 0.194157 -3.5766e-20)
(1.05818 0.176358 1.50446e-20)
(1.0588 0.160189 7.23363e-21)
(1.05932 0.145364 1.11891e-20)
(1.05976 0.13161 -1.44429e-20)
(1.05994 0.119044 3.66053e-22)
(1.05942 0.108127 1.3792e-20)
(1.05865 0.0976927 4.02924e-20)
(0.570682 0.373702 8.51653e-19)
(0.96685 0.604418 -4.41044e-19)
(1.05613 0.587184 5.45548e-20)
(1.05581 0.521306 -1.6119e-19)
(1.04838 0.456574 -5.14362e-20)
(1.04315 0.403486 -1.54505e-21)
(1.04107 0.358752 -8.79537e-21)
(1.04051 0.320897 -5.84262e-21)
(1.04111 0.288266 -7.98174e-22)
(1.04225 0.259909 -5.25649e-20)
(1.04374 0.234966 3.07876e-20)
(1.04532 0.212853 4.04773e-21)
(1.04689 0.193071 1.64385e-20)
(1.04833 0.175258 -2.48424e-20)
(1.04962 0.159112 3.25599e-20)
(1.05072 0.144343 1.11358e-20)
(1.05167 0.130671 -1.59713e-20)
(1.05229 0.118216 -3.18646e-21)
(1.05216 0.107453 -5.02546e-20)
(1.0518 0.0971681 -2.25352e-20)
(0.564983 0.395888 -4.1095e-19)
(0.942813 0.621581 -4.44551e-19)
(1.0267 0.59574 1.40661e-19)
(1.02809 0.525246 8.04483e-20)
(1.0241 0.458543 7.11845e-20)
(1.02184 0.404206 8.88731e-22)
(1.02224 0.35862 -2.72633e-20)
(1.02369 0.320196 4.62215e-20)
(1.02597 0.28718 -8.14572e-20)
(1.02852 0.258581 2.011e-20)
(1.03122 0.233495 -2.91745e-20)
(1.03383 0.211315 1.05528e-20)
(1.0363 0.191523 -6.02842e-20)
(1.03853 0.173742 2.40648e-20)
(1.04049 0.157661 -4.80864e-20)
(1.0422 0.142987 2.17118e-20)
(1.04367 0.129433 9.69616e-21)
(1.04473 0.117102 2.99411e-20)
(1.04502 0.1065 4.52268e-20)
(1.04511 0.0964331 -5.90971e-21)
(0.555821 0.41615 1.38752e-19)
(0.915272 0.635699 4.43043e-19)
(0.995679 0.602064 -1.11043e-19)
(0.99946 0.527441 1.00803e-19)
(0.99925 0.459068 -2.10494e-20)
(1.00014 0.403721 -3.83202e-20)
(1.00312 0.357457 6.91972e-20)
(1.00667 0.318603 -5.45272e-20)
(1.0107 0.285318 3.93961e-21)
(1.01472 0.25657 1.49453e-20)
(1.01867 0.231421 3.48967e-22)
(1.02235 0.209243 1.10316e-19)
(1.02574 0.189498 5.45058e-20)
(1.02878 0.171799 -2.7176e-20)
(1.03146 0.155827 3.10031e-20)
(1.03378 0.141291 -2.13027e-20)
(1.03578 0.127892 -1.18485e-21)
(1.03729 0.115693 -1.14822e-19)
(1.03802 0.105241 -5.17848e-20)
(1.03858 0.0954615 -4.07175e-20)
(0.543408 0.434358 3.00206e-20)
(0.884721 0.646681 1.31926e-19)
(0.963231 0.605898 -9.85691e-20)
(0.97009 0.527811 -1.24371e-20)
(0.973938 0.458086 -4.65092e-20)
(0.978124 0.401973 -2.71641e-20)
(0.983799 0.355217 -4.7051e-20)
(0.98952 0.316082 -2.89074e-20)
(0.995367 0.28265 -2.91069e-20)
(1.0009 0.253856 5.95572e-20)
(1.00613 0.228728 -5.55005e-20)
(1.01091 0.206621 -1.72412e-19)
(1.01525 0.186983 -4.05865e-20)
(1.01912 0.169416 -1.93952e-20)
(1.02253 0.153598 5.90997e-20)
(1.02548 0.139246 -9.53061e-21)
(1.02801 0.126046 1.17716e-20)
(1.02999 0.113995 -2.28244e-20)
(1.03121 0.103678 7.7964e-20)
(1.03229 0.0942542 -5.01227e-20)
(0.527728 0.45013 6.73539e-20)
(0.851905 0.654673 -2.56203e-19)
(0.929627 0.607105 4.04431e-20)
(0.940137 0.526274 -3.806e-20)
(0.948282 0.455539 2.0053e-20)
(0.955888 0.398912 1.51623e-19)
(0.964347 0.351864 -1.30589e-19)
(0.972309 0.312605 -3.33856e-20)
(0.98002 0.279154 8.17684e-21)
(0.987105 0.250418 -2.17365e-19)
(0.993649 0.225398 3.80427e-20)
(0.999549 0.203437 1.37901e-19)
(1.00486 0.183967 1.35321e-19)
(1.00958 0.166584 3.32319e-20)
(1.01373 0.150965 -4.96864e-20)
(1.01732 0.136839 -1.89315e-20)
(1.02037 0.123882 5.80736e-20)
(1.02288 0.112007 5.66037e-21)
(1.02472 0.101846 9.75219e-21)
(1.0264 0.0929385 8.45721e-20)
(0.508876 0.462889 -3.16925e-19)
(0.817188 0.659491 1.03883e-19)
(0.89508 0.605689 1.77135e-20)
(0.909763 0.522757 1.81879e-21)
(0.922403 0.451377 1.16164e-19)
(0.933531 0.394498 -7.03988e-20)
(0.944847 0.347365 9.33631e-20)
(0.955105 0.308146 -6.39671e-20)
(0.964719 0.27481 -1.04838e-19)
(0.973384 0.246241 3.35495e-19)
(0.981266 0.221421 8.40362e-21)
(0.988304 0.199681 -1.95394e-20)
(0.994601 0.180442 -6.04666e-20)
(1.00018 0.163296 -5.08216e-21)
(1.00508 0.14792 -4.18027e-21)
(1.0093 0.134056 3.83273e-20)
(1.0129 0.12137 -3.21963e-20)
(1.01602 0.109677 -3.01107e-20)
(1.01872 0.099678 6.5408e-21)