/*--------------------------------*- C++ -*----------------------------------*\
  =========                 |
  \\      /  F ield         | OpenFOAM: The Open Source CFD Toolbox
   \\    /   O peration     | Website:  https://openfoam.org
    \\  /    A nd           | Version:  7
     \\/     M anipulation  |
\*---------------------------------------------------------------------------*/
FoamFile
{
    version     2.0;
    format      ascii;
    class       surfaceScalarField;
    location    "10";
    object      phi;
}
// * * * * * * * * * * * * * * * * * * * * * * * * * * * * * * * * * * * * * //

dimensions      [0 3 -1 0 0 0 0];

internalField   nonuniform List<scalar> 
23915
(
-4.98104e-05
4.98099e-05
5.00282e-10
-0.000144931
9.51195e-05
1.01259e-09
-0.000268089
0.000123157
1.29775e-09
-0.000411325
0.000143234
1.47025e-09
-0.000573028
0.000161702
1.61324e-09
-0.000753996
0.000180966
1.75238e-09
-0.000955871
0.000201873
1.8771e-09
-0.00118017
0.000224294
1.95543e-09
-0.00142777
0.000247598
1.96807e-09
-0.00169848
0.000270712
1.88871e-09
-0.0019906
0.000292117
1.68497e-09
-0.00230038
0.000309777
1.32821e-09
-0.0026215
0.000321125
7.93484e-10
-0.00294465
0.000323148
5.73753e-11
-0.00325654
0.000311894
-8.61583e-10
-0.0035407
0.000284159
-1.96748e-09
-0.00377526
0.000234562
-3.19579e-09
-0.00393218
0.000156929
-4.47355e-09
-0.0040011
6.89194e-05
-5.60917e-09
-8.06122e-05
-6.42472e-09
-0.00392048
-4.84555e-05
9.82654e-05
-0.000141191
0.000187855
-0.000260984
0.00024295
-0.00039961
0.00028186
-0.000554992
0.000317085
-0.000727354
0.000353328
-0.000917664
0.000392183
-0.00112666
0.000433285
-0.00135431
0.00047525
-0.0015994
0.000515804
-0.00185908
0.000551798
-0.00212841
0.000579103
-0.00239985
0.00059257
-0.00266317
0.000586464
-0.00290418
0.000552905
-0.00310625
0.000486228
-0.00325008
0.000378388
-0.00330018
0.000207036
-0.00326095
2.96882e-05
-0.000286001
-0.00305556
-4.58398e-05
0.000144105
-0.000133929
0.000275944
-0.000247156
0.000356177
-0.000376801
0.000411505
-0.000519912
0.000460195
-0.000675639
0.000509055
-0.000843711
0.000560255
-0.00102345
0.000613027
-0.00121325
0.000665051
-0.00141014
0.000712688
-0.00160938
0.000751047
-0.00180419
0.000773912
-0.00198522
0.000773592
-0.00214106
0.000742305
-0.00225656
0.000668404
-0.00231449
0.00054416
-0.00230266
0.000366555
-0.00217341
7.77925e-05
-0.00195407
-0.000189657
-0.00068901
-0.00155106
-4.21192e-05
0.000186224
-0.000123532
0.000357356
-0.0002273
0.000459945
-0.000344046
0.000528251
-0.000469628
0.000585777
-0.000601762
0.000641189
-0.000738555
0.000697048
-0.000877544
0.000752017
-0.00101519
0.000802699
-0.0011465
0.000843999
-0.00126475
0.000869294
-0.00136134
0.000870502
-0.00142528
0.000837528
-0.00144453
0.000761559
-0.0014038
0.000627671
-0.00128516
0.000425523
-0.001082
0.000163398
-0.00075539
-0.00024882
-0.00030554
-0.000639507
-0.00129046
0.000295905
-3.7513e-05
0.000223737
-0.000110543
0.000430386
-0.000202396
0.000551798
-0.000302947
0.000628802
-0.000406684
0.000689514
-0.000509694
0.000744198
-0.000608287
0.000795642
-0.00069812
0.00084185
-0.000773734
0.000878313
-0.000828281
0.000898546
-0.000853367
0.000894379
-0.000839203
0.000856338
-0.000773813
0.000772138
-0.00064564
0.000633385
-0.000439758
0.00042179
-0.000144608
0.000130373
0.000266754
-0.000247964
0.000785974
-0.000768039
0.00143533
-0.00128886
-0.00211384
0.00225872
-3.22887e-05
0.000256026
-9.56278e-05
0.000493725
-0.000173637
0.000629808
-0.00025544
0.000710605
-0.000334105
0.000768179
-0.000404057
0.000814151
-0.000459848
0.000851432
-0.00049538
0.000877382
-0.000503545
0.000886477
-0.000476067
0.000871069
-0.000403459
0.000821771
-0.000275486
0.000728366
-8.01963e-05
0.000576848
0.000193186
0.000360003
0.000562106
5.28706e-05
0.00102898
-0.000336499
0.00161863
-0.000837612
0.0023348
-0.00148422
0.00316168
-0.00211574
-0.00312383
0.00417166
-2.6742e-05
0.000282768
-7.9528e-05
0.000546511
-0.00014235
0.00069263
-0.000203644
0.000771899
-0.00025513
0.000819665
-0.000289682
0.000848703
-0.000300266
0.000862016
-0.000279308
0.000856423
-0.000218428
0.000825598
-0.000108405
0.000761046
6.07417e-05
0.000652624
0.000299682
0.000489425
0.000620547
0.000255984
0.00103042
-4.98741e-05
0.0015514
-0.000468107
0.00217457
-0.000959669
0.00293426
-0.0015973
0.00381664
-0.00236659
0.00481049
-0.00310959
-0.00426879
0.00595545
-2.11761e-05
0.000303944
-6.30075e-05
0.000588343
-0.000109893
0.000739516
-0.000149694
0.0008117
-0.000172935
0.000842906
-0.000171128
0.000846896
-0.000135895
0.000826783
-5.84699e-05
0.000778998
7.04803e-05
0.000696648
0.000260901
0.000570626
0.000523188
0.000390337
0.000867721
0.000144892
0.00130738
-0.000183678
0.00184673
-0.000589225
0.00251031
-0.00113169
0.00328217
-0.00173153
0.00419699
-0.00251212
0.00521582
-0.00338543
0.00635302
-0.00424679
-0.00547551
0.00755974
-1.58799e-05
0.000319824
-4.67988e-05
0.000619262
-7.75617e-05
0.000770279
-9.55719e-05
0.00082971
-9.03409e-05
0.000837675
-5.22115e-05
0.000808766
2.8354e-05
0.000746217
0.000161163
0.00064619
0.000356434
0.000501376
0.000624868
0.000302192
0.000977411
3.7794e-05
0.00142495
-0.000302643
0.00198042
-0.000739154
0.00264819
-0.00125699
0.00344682
-0.00193032
0.00436036
-0.00264507
0.00540837
-0.00356013
0.00652394
-0.004501
0.00774585
-0.00546869
-0.00665215
0.00892249
-1.11065e-05
0.000330931
-3.15467e-05
0.000639702
-4.64764e-05
0.000785208
-4.29193e-05
0.000826153
-9.51145e-06
0.000804267
6.44863e-05
0.000734769
0.000189762
0.000620941
0.000377295
0.000458657
0.000638473
0.000240198
0.000985161
-4.44964e-05
0.00142933
-0.000406376
0.0019824
-0.000855715
0.00265538
-0.00141213
0.00345297
-0.00205458
0.00437738
-0.00285474
0.00541295
-0.00368064
0.00654858
-0.00469575
0.00770169
-0.00565412
0.00890829
-0.00667529
-0.00770594
0.00996207
-7.05476e-06
0.000337985
-1.7753e-05
0.0006504
-1.74832e-05
0.000784939
7.14158e-06
0.000801528
6.83502e-05
0.000743059
0.00017808
0.000625039
0.000348471
0.00045055
0.000592143
0.000214986
0.000922201
-8.98604e-05
0.00135206
-0.000474358
0.00189425
-0.000948566
0.00255936
-0.00152083
0.00335198
-0.00220475
0.00427224
-0.00297484
0.00529861
-0.00388111
0.00640982
-0.00479185
0.00755825
-0.00584419
0.00866789
-0.00676376
0.00974938
-0.00775678
-0.00857686
0.0106203
-3.85377e-06
0.000341839
-5.71146e-06
0.000652258
8.95194e-06
0.000770275
5.41747e-05
0.000756306
0.000143265
0.000653968
0.000289773
0.000478531
0.000507909
0.000232415
0.000812594
-8.96993e-05
0.00121897
-0.000496239
0.00174124
-0.000996627
0.0023901
-0.00159742
0.0031706
-0.00230133
0.00407461
-0.00310876
0.00508917
-0.00398939
0.00616776
-0.00495969
0.00727982
-0.0059039
0.00835345
-0.00691783
0.00933833
-0.00774863
0.0102262
-0.0086447
-0.00926168
0.0109111
-1.55641e-06
0.000343396
4.40841e-06
0.000646293
3.28093e-05
0.000741874
9.8593e-05
0.000690522
0.000216705
0.000535856
0.000403057
0.000292179
0.000674705
-3.92341e-05
0.00104919
-0.000464184
0.00154271
-0.000989757
0.0021672
-0.00162112
0.00292602
-0.00235624
0.00381144
-0.00318676
0.00479691
-0.00409422
0.00585106
-0.00504355
0.00691017
-0.0060188
0.00794033
-0.00693406
0.00886971
-0.00784721
0.00968494
-0.00856386
0.0103789
-0.00933864
-0.00980427
0.0109215
-7.37638e-08
0.000343469
1.27744e-05
0.000633445
5.45856e-05
0.000700063
0.000141732
0.000603376
0.000291656
0.000385932
0.000523559
6.02758e-05
0.000857792
-0.000373468
0.00131348
-0.000919867
0.00190442
-0.0015807
0.00263423
-0.00235092
0.00349152
-0.00321353
0.00444949
-0.00414472
0.00546287
-0.00510761
0.00648582
-0.0060665
0.007454
-0.00698698
0.00834332
-0.00782338
0.00910308
-0.00860696
0.00975738
-0.00921816
0.010305
-0.00988628
-0.0102612
0.010762
6.35267e-07
0.000342834
1.9868e-05
0.000614212
7.53186e-05
0.000644613
0.000185859
0.000492836
0.000372477
0.000199314
0.00065838
-0.000225627
0.00106643
-0.000781522
0.00161386
-0.0014673
0.0023056
-0.00227244
0.00312914
-0.00317446
0.00405292
-0.00413731
0.00503087
-0.00512267
0.00600749
-0.00608423
0.00693544
-0.00699445
0.00776802
-0.00781957
0.00850082
-0.00855618
0.00911066
-0.00921681
0.00964679
-0.00975428
0.010103
-0.0103425
-0.0106747
0.0105164
8.48877e-07
0.000341985
2.631e-05
0.000588751
9.65282e-05
0.000574394
0.000234047
0.000355317
0.00046446
-3.10985e-05
0.000814781
-0.000575948
0.00130734
-0.00127408
0.00195088
-0.00211083
0.00273331
-0.00305487
0.00362039
-0.00406154
0.00456151
-0.00507844
0.00550015
-0.00606131
0.00638522
-0.0069693
0.00718271
-0.00779194
0.00787317
-0.00851003
0.00847045
-0.00915346
0.00897187
-0.00971822
0.00943402
-0.0102164
0.00983648
-0.0107449
-0.0110688
0.0102306
8.27459e-07
0.000341158
3.29441e-05
0.000556634
0.000120131
0.000487207
0.000289908
0.000185539
0.000573053
-0.000314243
0.000998328
-0.00100122
0.00158138
-0.00185713
0.00231379
-0.00284324
0.00316026
-0.00390134
0.00406599
-0.00496727
0.00497086
-0.00598331
0.00582253
-0.00691298
0.00658744
-0.0077342
0.00725242
-0.00845692
0.00782227
-0.00907987
0.00831921
-0.0096504
0.00875099
-0.01015
0.00916837
-0.0106338
0.0095375
-0.0111141
-0.0114572
0.00992586
8.6901e-07
0.000340289
4.07496e-05
0.000516754
0.000148285
0.000379672
0.000357182
-2.33581e-05
0.000702789
-0.000659849
0.00121072
-0.00150915
0.00188103
-0.00252745
0.00268066
-0.00364287
0.00355138
-0.00477206
0.00442745
-0.00584334
0.00525351
-0.00680938
0.00599412
-0.00765359
0.00663803
-0.00837812
0.00719052
-0.00900941
0.00767033
-0.00955968
0.00809843
-0.0100785
0.00848718
-0.0105388
0.00887436
-0.011021
0.00922163
-0.0114613
-0.0118473
0.00961174
1.27085e-06
0.000339018
5.07592e-05
0.000467265
0.000183191
0.00024724
0.000439211
-0.000279378
0.000856009
-0.00107665
0.00144791
-0.00210105
0.00219015
-0.00326969
0.00302317
-0.00447589
0.00387459
-0.00562348
0.00468209
-0.00665084
0.00540707
-0.00753436
0.00603572
-0.00828224
0.0065753
-0.0089177
0.00704189
-0.009476
0.00745836
-0.00997615
0.00784009
-0.0104602
0.0082015
-0.0109002
0.00856321
-0.0113827
0.00889561
-0.0117937
-0.0122403
0.00928862
2.33669e-06
0.000336681
6.39748e-05
0.000405627
0.000226879
8.43362e-05
0.000538322
-0.000590821
0.0010316
-0.00156993
0.0016994
-0.00276885
0.00248681
-0.0040571
0.00331445
-0.00530353
0.00411001
-0.00641904
0.00482698
-0.00736781
0.00544817
-0.00815555
0.0059784
-0.00881247
0.00643574
-0.00937503
0.00684001
-0.00988027
0.00721212
-0.0103483
0.00756209
-0.0108102
0.00790463
-0.0112427
0.00824143
-0.0117195
0.00855446
-0.0121068
-0.0126479
0.00896209
4.5418e-06
0.000332139
8.13886e-05
0.00032878
0.000280813
-0.000115088
0.000654586
-0.000964595
0.0012231
-0.00213844
0.00194807
-0.00349382
0.00274695
-0.00485598
0.00353414
-0.00609071
0.00425077
-0.00713567
0.00487179
-0.00798884
0.0053991
-0.00868286
0.00584947
-0.00926285
0.00624494
-0.00977049
0.00660446
-0.0102398
0.0069445
-0.0106883
0.00727145
-0.0111372
0.00759821
-0.0115695
0.00791774
-0.012039
0.00823884
-0.0124279
-0.0129554
0.00854625
7.75918e-06
0.00032438
0.000103503
0.000233037
0.000346252
-0.000357837
0.000787256
-0.0014056
0.00142263
-0.00277381
0.00217896
-0.00425015
0.00295697
-0.00563399
0.00367954
-0.00681328
0.00430875
-0.00776488
0.00484002
-0.00852011
0.00528859
-0.00913143
0.00567679
-0.00965105
0.00602614
-0.0101198
0.0063525
-0.0105662
0.00666773
-0.0110035
0.00697615
-0.0114456
0.00728643
-0.0118797
0.00758909
-0.0123417
0.00791118
-0.0127499
-0.0132697
0.00822551
1.23593e-05
0.000312021
0.000131041
0.000114355
0.000423328
-0.000650123
0.000931637
-0.00191391
0.00161718
-0.00345935
0.00237581
-0.00500878
0.00310692
-0.0063651
0.00375228
-0.00745864
0.00429595
-0.00830855
0.00474904
-0.0089732
0.0051342
-0.00951659
0.00547465
-0.0099915
0.005789
-0.0104342
0.00608942
-0.0108666
0.00638403
-0.0112981
0.0066756
-0.0117372
0.00696926
-0.0121734
0.00726284
-0.0126353
0.00756523
-0.0130523
-0.013567
0.00786254
1.84544e-05
0.000293567
0.000164378
-3.15693e-05
0.000511102
-0.000996847
0.00108094
-0.00248374
0.00179428
-0.00417269
0.00252864
-0.00574314
0.00319614
-0.00703261
0.00376153
-0.00802403
0.00422754
-0.00877456
0.00461543
-0.00936108
0.00495044
-0.0098516
0.00525386
-0.0102949
0.00554054
-0.0107209
0.00581924
-0.0111453
0.00609536
-0.0115743
0.0063704
-0.0120122
0.00664933
-0.0124523
0.00692682
-0.0129128
0.0072166
-0.0133421
-0.0138612
0.00751086
2.61219e-05
0.000267445
0.000203672
-0.000209119
0.000607294
-0.00140047
0.0012268
-0.00310325
0.00194372
-0.00488961
0.00263344
-0.00643287
0.00322954
-0.0076287
0.00371871
-0.0085132
0.00411742
-0.00917327
0.00445213
-0.00969579
0.00474743
-0.0101469
0.00502127
-0.0105688
0.0052848
-0.0109844
0.00554407
-0.0114045
0.00580253
-0.0118327
0.00606149
-0.0122712
0.00632381
-0.0127147
0.00658781
-0.0131768
0.00686368
-0.013618
-0.0141345
0.00713696
3.5434e-05
0.000232011
0.000248777
-0.000422462
0.000708274
-0.00185997
0.00136075
-0.00375573
0.00205908
-0.00558794
0.00269116
-0.00706494
0.00321483
-0.00815238
0.00363502
-0.0089334
0.003977
-0.00951525
0.00426862
-0.00998741
0.00453188
-0.0104102
0.00478102
-0.0108179
0.00502404
-0.0112274
0.00526497
-0.0116455
0.00550616
-0.0120739
0.00574839
-0.0125134
0.00599459
-0.0129608
0.00624258
-0.0134247
0.00650106
-0.0138765
-0.0143949
0.00676144
4.64888e-05
0.000185522
0.000299113
-0.000675087
0.000809378
-0.00237023
0.00147566
-0.00442201
0.0021379
-0.00625018
0.00270592
-0.00763295
0.00316056
-0.00860702
0.00352034
-0.00929318
0.00381511
-0.00981001
0.00407152
-0.0102438
0.00430809
-0.0106467
0.00453557
-0.0110454
0.0047595
-0.0114513
0.00498258
-0.0118685
0.00520634
-0.0122977
0.00543171
-0.0127388
0.00566063
-0.0131898
0.00589222
-0.0136563
0.00613408
-0.0141183
-0.0146365
0.00637563
5.94257e-05
0.000126096
0.000353545
-0.000969206
0.000905501
-0.00292219
0.00156673
-0.00508324
0.00218087
-0.00686433
0.00268344
-0.00813552
0.00307484
-0.00899842
0.00338275
-0.00960109
0.00363827
-0.0100655
0.00386534
-0.0104709
0.00407877
-0.0108602
0.00428639
-0.011253
0.00449194
-0.0116569
0.00469723
-0.0120738
0.00490343
-0.0125039
0.0051113
-0.0129466
0.00532263
-0.0134011
0.00553686
-0.0138706
0.00575977
-0.0143413
-0.0148604
0.00598368
7.44015e-05
5.16948e-05
0.000410394
-0.0013052
0.000991797
-0.00350359
0.00163165
-0.00572309
0.00219072
-0.0074234
0.00262986
-0.00857466
0.00296483
-0.00933339
0.00322858
-0.00986484
0.00345119
-0.0102881
0.00365307
-0.0106728
0.00384562
-0.0110527
0.00403436
-0.0114418
0.00422182
-0.0118443
0.00440925
-0.0122613
0.00459754
-0.0126922
0.00478755
-0.0131366
0.00498061
-0.0135942
0.00517664
-0.0140666
0.00538053
-0.0145451
-0.0150648
0.00558496
9.15093e-05
-3.98145e-05
0.000467584
-0.00168127
0.00106434
-0.00410035
0.00167027
-0.00632902
0.00217132
-0.00792445
0.00255106
-0.00895439
0.00283645
-0.00961878
0.00306263
-0.010091
0.00325713
-0.0104826
0.00343665
-0.0108523
0.0036097
-0.0112257
0.00378008
-0.0116121
0.00394949
-0.0120138
0.00411887
-0.0124306
0.00428899
-0.0128623
0.00446064
-0.0133083
0.00463495
-0.0137685
0.00481214
-0.0142438
0.00499585
-0.0147289
-0.0152494
0.00518042
0.000110662
-0.000150476
0.000522839
-0.00209345
0.00112055
-0.00469806
0.00168392
-0.00689239
0.00212691
-0.00836745
0.00245228
-0.00927975
0.00269448
-0.00986099
0.00288847
-0.010285
0.00305836
-0.0106525
0.0032174
-0.0110113
0.00337173
-0.0113801
0.00352396
-0.0117644
0.00367527
-0.0121651
0.0038264
-0.0125818
0.00397803
-0.0130139
0.00413092
-0.0134612
0.00428601
-0.0139236
0.00444364
-0.0144014
0.00460677
-0.014892
-0.0154132
0.00477061
0.000131503
-0.000281979
0.00057387
-0.00253582
0.00115925
-0.00528344
0.00167481
-0.00740794
0.00206168
-0.00875433
0.00233803
-0.0095561
0.00254267
-0.0100656
0.00270867
-0.010451
0.00285645
-0.0108003
0.00299617
-0.0111511
0.00313221
-0.0115161
0.00326635
-0.0118985
0.00339944
-0.0122982
0.00353211
-0.0127145
0.00366498
-0.0131468
0.00379875
-0.0135949
0.00393417
-0.014059
0.00407175
-0.014539
0.00421365
-0.0150339
-0.0155558
0.00435622
0.000153409
-0.000435388
0.00061855
-0.00300096
0.00118046
-0.00584535
0.0016456
-0.00787308
0.00197949
-0.00908822
0.00221204
-0.00978865
0.00238388
-0.0102375
0.0025251
-0.0105922
0.00265245
-0.0109277
0.00277358
-0.0112722
0.00289154
-0.0116341
0.00300757
-0.0120145
0.00312232
-0.0124129
0.00323634
-0.0128285
0.00335019
-0.0132606
0.0034645
-0.0137092
0.00357991
-0.0141744
0.00369693
-0.014656
0.00381721
-0.0151542
-0.0156765
0.00393789
0.000175585
-0.000610972
0.000655093
-0.00348047
0.00118502
-0.00637528
0.00159909
-0.00828714
0.00188377
-0.0093729
0.00207736
-0.00998224
0.00222028
-0.0103804
0.00233908
-0.010711
0.00244715
-0.0110357
0.00255011
-0.0113751
0.00265007
-0.011734
0.00274792
-0.0121124
0.00284421
-0.0125092
0.0029394
-0.0129237
0.00303402
-0.0133552
0.0031286
-0.0138038
0.00322368
-0.0142695
0.00331977
-0.0147521
0.00341804
-0.0152524
-0.0157748
0.00351638
0.000197192
-0.000808164
0.000682227
-0.0039655
0.00117428
-0.00686733
0.00153799
-0.00865085
0.00177746
-0.00961237
0.00193638
-0.0101412
0.00205349
-0.0104975
0.00215157
-0.0108091
0.0022411
-0.0111253
0.00232611
-0.0114602
0.0024081
-0.011816
0.00248773
-0.012192
0.00256544
-0.0125869
0.00264167
-0.0129999
0.00271686
-0.0134304
0.0027915
-0.0138785
0.00286599
-0.014344
0.00294084
-0.014827
0.00301682
-0.0153284
-0.0158504
0.00309238
0.000217436
-0.0010256
0.00069928
-0.00444735
0.00114981
-0.00731786
0.00146485
-0.0089659
0.00166306
-0.00981057
0.001791
-0.0102691
0.00188471
-0.0105912
0.00196328
-0.0108877
0.00203473
-0.0111967
0.00210193
-0.0115274
0.00216595
-0.01188
0.00222729
-0.0122533
0.00228635
-0.012646
0.0023435
-0.013057
0.00239914
-0.0134861
0.00245365
-0.013933
0.00250737
-0.0143977
0.00256073
-0.0148803
0.00261422
-0.0153819
-0.0159029
0.00266671
0.000235605
-0.00126121
0.000706149
-0.00491789
0.00111329
-0.007725
0.00138198
-0.00923459
0.00154263
-0.00997122
0.00164271
-0.0103692
0.00171486
-0.0106634
0.00177476
-0.0109476
0.00182842
-0.0112504
0.00187788
-0.0115768
0.00192391
-0.0119261
0.00196693
-0.0122964
0.00200728
-0.0126863
0.00204528
-0.013095
0.00208126
-0.0135221
0.00211553
-0.0139672
0.00214835
-0.0144305
0.00218007
-0.014912
0.00221093
-0.0154128
-0.015932
0.00224009
0.000251062
-0.00151227
0.000703199
-0.00537003
0.00106639
-0.00808819
0.00129138
-0.00945959
0.00141787
-0.0100977
0.00149266
-0.010444
0.00154463
-0.0107153
0.00158642
-0.0109894
0.00162247
-0.0112864
0.00165424
-0.0116086
0.00168229
-0.0119541
0.00170697
-0.012321
0.00172858
-0.0127079
0.00174739
-0.0131139
0.00176366
-0.0135383
0.00177762
-0.0139812
0.00178946
-0.0144423
0.00179946
-0.014922
0.00180764
-0.0154209
-0.0159377
0.00181335
0.000263258
-0.00177553
0.000691115
-0.00579788
0.00101069
-0.00840776
0.00119483
-0.00964372
0.00129018
-0.0101931
0.00134172
-0.0104955
0.00137454
-0.0107482
0.00139861
-0.0110134
0.00141719
-0.011305
0.0014313
-0.0116227
0.00144139
-0.0119642
0.00144775
-0.0123274
0.00145062
-0.0127108
0.00145023
-0.0131135
0.00144677
-0.0135349
0.0014404
-0.0139748
0.00143126
-0.0144332
0.00141951
-0.0149103
0.00140505
-0.0154065
-0.01592
0.00138727
0.000271754
-0.00204728
0.000670813
-0.00619694
0.000947689
-0.00868464
0.00109379
-0.00978983
0.00116066
-0.0102599
0.00119061
-0.0105255
0.00120503
-0.0107626
0.00121165
-0.01102
0.00121285
-0.0113062
0.00120935
-0.0116192
0.00120151
-0.0119564
0.00118958
-0.0123155
0.00117375
-0.012695
0.00115419
-0.0130939
0.00113104
-0.0135117
0.00110438
-0.0139482
0.00107429
-0.0144031
0.00104084
-0.0148768
0.00100378
-0.0153694
-0.0158788
0.00096266
0.000274679
-0.00232196
0.000640658
-0.00656292
0.000875669
-0.00891965
0.000986454
-0.00990061
0.00102725
-0.0103007
0.00103706
-0.0105353
0.00103378
-0.0107593
0.00102331
-0.0110096
0.00100736
-0.0112903
0.000986461
-0.0115983
0.000960909
-0.0119308
0.000930897
-0.0122855
0.000896577
-0.0126607
0.000858062
-0.0130554
0.000815439
-0.0134691
0.000768729
-0.0139015
0.000717958
-0.0143523
0.000663075
-0.014822
0.000603653
-0.01531
-0.0158148
0.000539618
0.00027488
-0.00259684
0.000606775
-0.00689482
0.000801942
-0.00911481
0.000880053
-0.00997872
0.00089663
-0.0103173
0.000887167
-0.0105258
0.000866437
-0.0107386
0.000838878
-0.010982
0.000805718
-0.0112571
0.000767358
-0.0115599
0.000724021
-0.0118875
0.000675869
-0.0122373
0.000623003
-0.0126078
0.000565485
-0.0129979
0.000503326
-0.0134069
0.000436503
-0.0138346
0.000365103
-0.0142809
0.000288766
-0.0147456
0.000207299
-0.0152285
-0.0157276
0.000120081
0.000271032
-0.00286787
0.000567653
-0.00719144
0.000724669
-0.00927183
0.000772419
-0.0100265
0.000766401
-0.0103113
0.000738442
-0.0104979
0.000700564
-0.0107007
0.000656053
-0.0109375
0.000605782
-0.0112068
0.000550062
-0.0115042
0.000489053
-0.0118265
0.000422863
-0.0121711
0.000351565
-0.0125365
0.000275208
-0.0129215
0.000193621
-0.0133254
0.000106814
-0.0137478
1.44977e-05
-0.0141886
-8.26886e-05
-0.0146484
-0.00018563
-0.0151256
-0.0156175
-0.000295721
0.000263369
-0.00313124
0.00052417
-0.00745224
0.000644802
-0.00939246
0.000664288
-0.010046
0.000637037
-0.010284
0.000591197
-0.010452
0.000536417
-0.0106459
0.000475087
-0.0108762
0.000407829
-0.0111396
0.000334848
-0.0114312
0.000256317
-0.011748
0.000172186
-0.012087
8.25417e-05
-0.0124469
-1.26933e-05
-0.0128263
-0.000113219
-0.0132248
-0.000219619
-0.0136414
-0.000331772
-0.0140765
-0.00045013
-0.0145301
-0.00057525
-0.0150005
-0.0154855
-0.000707267
0.000252224
-0.00338346
0.00047715
-0.00767716
0.00056319
-0.0094785
0.000556281
-0.0100391
0.000508915
-0.0102367
0.000445686
-0.0103888
0.000374211
-0.0105744
0.000296177
-0.0107981
0.000212089
-0.0110555
0.000121898
-0.011341
2.57936e-05
-0.0116519
-7.58411e-05
-0.0119853
-0.000183391
-0.0123393
-0.000296899
-0.0127128
-0.000416647
-0.0131051
-0.000542548
-0.0135155
-0.000674775
-0.0139442
-0.000813773
-0.0143911
-0.000960113
-0.0148541
-0.0153316
-0.00111394
0.000238007
-0.00362147
0.000427356
-0.00786651
0.000480565
-0.00953171
0.00044891
-0.0100074
0.000382352
-0.0101701
0.00030214
-0.0103086
0.000214139
-0.0104864
0.000119477
-0.0107035
1.83714e-05
-0.0109544
-8.83612e-05
-0.0112343
-0.000201314
-0.0115389
-0.000320625
-0.011866
-0.000446139
-0.0122138
-0.000578002
-0.0125809
-0.000716447
-0.0129666
-0.000861571
-0.0133704
-0.00101358
-0.0137922
-0.00117287
-0.0142318
-0.00133998
-0.014687
-0.0151564
-0.0015152
0.000221163
-0.00384263
0.000375481
-0.00802083
0.000397557
-0.00955379
0.000342596
-0.00995243
0.000257619
-0.0100851
0.000160736
-0.0102117
5.61724e-05
-0.0103819
-5.47098e-05
-0.0105926
-0.000171774
-0.0108373
-0.000295512
-0.0111106
-0.00042559
-0.0114088
-0.000562205
-0.0117294
-0.000705399
-0.0120706
-0.000855331
-0.012431
-0.00101222
-0.0128097
-0.00117626
-0.0132064
-0.0013477
-0.0136208
-0.00152692
-0.0140526
-0.0017144
-0.0144995
-0.0149603
-0.00191049
0.000202142
-0.00404478
0.000322154
-0.00814084
0.000314689
-0.00954632
0.000237679
-0.00987542
0.000134916
-0.00998237
2.11717e-05
-0.0100979
-9.88569e-05
-0.0102618
-0.000225771
-0.0104657
-0.000359352
-0.0107037
-0.000499619
-0.0109703
-0.000646526
-0.0112619
-0.00080021
-0.0115757
-0.000960813
-0.01191
-0.00112853
-0.0122633
-0.00130358
-0.0126347
-0.00148622
-0.0130237
-0.00167673
-0.0134303
-0.00187549
-0.0138538
-0.00208291
-0.0142921
-0.0147439
-0.00229937
0.000181381
-0.00422616
0.000267943
-0.00822741
0.000232415
-0.0095108
0.000134445
-0.00977745
1.36215e-05
-0.00986154
-0.000114874
-0.00996945
-0.000251063
-0.0101257
-0.000394068
-0.0103227
-0.000543807
-0.010554
-0.000700369
-0.0108137
-0.000863827
-0.0110985
-0.00103433
-0.0114052
-0.00121207
-0.0117323
-0.00139726
-0.0120781
-0.00159017
-0.0124418
-0.00179107
-0.0128228
-0.00200027
-0.0132211
-0.00221816
-0.0136359
-0.00244508
-0.0140652
-0.0145076
-0.00268138
0.000159285
-0.00438544
0.00021335
-0.00828147
0.000151113
-0.00944856
3.30023e-05
-0.00965934
-0.000103377
-0.00972516
-0.000248507
-0.00982432
-0.000400467
-0.0099737
-0.000559257
-0.0101639
-0.000724886
-0.0103884
-0.0008975
-0.0106411
-0.00107724
-0.0109187
-0.00126429
-0.0112182
-0.00145886
-0.0115377
-0.00166122
-0.0118757
-0.00187164
-0.0122314
-0.00209043
-0.012604
-0.00231795
-0.0129936
-0.00255456
-0.0133993
-0.00280051
-0.0138193
-0.014252
-0.00305613
0.000136245
-0.00452169
0.000158798
-0.00830402
7.10913e-05
-0.00936085
-6.57785e-05
-0.00952247
-0.000218513
-0.00957243
-0.00037934
-0.00966349
-0.000546815
-0.00980623
-0.000721122
-0.00998958
-0.000902376
-0.0102071
-0.00109077
-0.0104527
-0.0012865
-0.010723
-0.0014898
-0.0110149
-0.0017009
-0.0113266
-0.0019201
-0.0116565
-0.00214768
-0.0120038
-0.00238398
-0.0123677
-0.0026294
-0.0127481
-0.00288432
-0.0131444
-0.00314884
-0.0135547
-0.0139776
-0.00342322
0.00011265
-0.00463434
0.000104698
-0.00829607
-8.20072e-06
-0.00924795
-0.000162294
-0.00936838
-0.000331006
-0.00940372
-0.000507189
-0.00948731
-0.000689916
-0.0096235
-0.000879473
-0.00980002
-0.00107607
-0.0100105
-0.00127995
-0.0102488
-0.00149137
-0.0105116
-0.0017106
-0.0107957
-0.0019379
-0.0110993
-0.00217358
-0.0114208
-0.00241796
-0.0117594
-0.00267138
-0.0121143
-0.00293429
-0.0124852
-0.00320708
-0.0128716
-0.00348972
-0.0132721
-0.013685
-0.00378232
8.88485e-05
-0.00472318
5.17332e-05
-0.00825896
-8.35019e-05
-0.00911272
-0.000256346
-0.00919554
-0.000440678
-0.00921938
-0.000631914
-0.00929607
-0.000829606
-0.00942581
-0.00103412
-0.0095955
-0.00124576
-0.00979889
-0.00146482
-0.0100298
-0.00169161
-0.0102848
-0.00192643
-0.0105608
-0.00216958
-0.0108561
-0.0024214
-0.011169
-0.00268219
-0.0114986
-0.00295233
-0.0118442
-0.00323231
-0.0122053
-0.00352253
-0.0125814
-0.00382281
-0.0129718
-0.0133747
-0.00413307
6.50539e-05
-0.00478824
2.71842e-06
-0.00819662
-0.000157512
-0.00895249
-0.000347857
-0.00900519
-0.000547411
-0.00901983
-0.000753381
-0.0090901
-0.000965727
-0.00921346
-0.00118489
-0.00937634
-0.00141125
-0.00957253
-0.00164517
-0.00979586
-0.00188698
-0.010043
-0.00213705
-0.0103108
-0.00239569
-0.0105975
-0.00266326
-0.0109015
-0.00294008
-0.0112218
-0.00322654
-0.0115577
-0.00352316
-0.0119086
-0.00383037
-0.0122742
-0.0041478
-0.0126544
-0.0130474
-0.00447512
4.13645e-05
-0.0048296
-5.30447e-05
-0.00810221
-0.000229967
-0.00877556
-0.000436611
-0.00879855
-0.000651058
-0.00880538
-0.000871456
-0.0088697
-0.00109813
-0.00898679
-0.00133162
-0.00914285
-0.00157235
-0.0093318
-0.00182077
-0.00954744
-0.00207726
-0.00978648
-0.0023422
-0.0100458
-0.00261596
-0.0103237
-0.00289889
-0.0106185
-0.00319134
-0.0109293
-0.00349371
-0.0112553
-0.00380657
-0.0115958
-0.00413037
-0.0119504
-0.00446444
-0.0123203
-0.0127037
-0.00480814
1.86492e-05
-0.00484825
-0.000103895
-0.00797967
-0.00030032
-0.00857914
-0.000522542
-0.00857633
-0.000751507
-0.00857642
-0.000986012
-0.0086352
-0.00122667
-0.00874613
-0.00147412
-0.0088954
-0.00172888
-0.00907705
-0.00199143
-0.00928488
-0.00226221
-0.0095157
-0.00254165
-0.0097664
-0.00283014
-0.0100352
-0.00312804
-0.0103206
-0.0034357
-0.0106217
-0.00375355
-0.0109375
-0.00408221
-0.0112671
-0.00442219
-0.0116104
-0.00477255
-0.0119699
-0.0123444
-0.00513187
-1.95107e-06
-0.0048463
-0.000152518
-0.0078291
-0.000368386
-0.00836327
-0.000605613
-0.0083391
-0.000848665
-0.00833337
-0.00109693
-0.00838694
-0.00135121
-0.00849184
-0.00161226
-0.00863435
-0.00188065
-0.00880865
-0.00215695
-0.00900858
-0.00244164
-0.00923101
-0.00273518
-0.00947286
-0.00303798
-0.00973243
-0.00335044
-0.0100082
-0.0036729
-0.0102992
-0.00400581
-0.0106046
-0.00434978
-0.0109231
-0.00470538
-0.0112548
-0.0050717
-0.0116036
-0.0119699
-0.00544619
-2.93346e-05
-0.00481697
-0.000199749
-0.00765869
-0.000433932
-0.00812909
-0.000685722
-0.00808731
-0.000942445
-0.00807664
-0.00120409
-0.00812529
-0.00147161
-0.00822432
-0.00174586
-0.00836011
-0.0020275
-0.00852701
-0.00231715
-0.00871893
-0.00261533
-0.00893282
-0.00292255
-0.00916564
-0.00323925
-0.00941573
-0.00356584
-0.00968157
-0.00390272
-0.00996234
-0.00425031
-0.010257
-0.00460914
-0.0105643
-0.0049797
-0.0108843
-0.00536148
-0.0112218
-0.0115799
-0.00575146
-5.30682e-05
-0.0047639
-0.000245353
-0.0074664
-0.000496877
-0.00787757
-0.000762779
-0.00782141
-0.00103276
-0.00780666
-0.00130738
-0.00785068
-0.00158774
-0.00794396
-0.00187478
-0.00807306
-0.00216925
-0.00823254
-0.00247182
-0.00841636
-0.00278307
-0.00862157
-0.00310354
-0.00884517
-0.00343371
-0.00908556
-0.00377401
-0.00934127
-0.0041249
-0.00961144
-0.00448689
-0.00989501
-0.00486036
-0.0101908
-0.00524568
-0.0104989
-0.00564216
-0.0108254
-0.0111767
-0.00604541
-7.54451e-05
-0.00468845
-0.000289196
-0.00725265
-0.000557204
-0.00760956
-0.000836718
-0.00754189
-0.00111954
-0.00752384
-0.00140671
-0.00756351
-0.00169948
-0.00765119
-0.00199888
-0.00777366
-0.00230575
-0.00792568
-0.0026208
-0.00810131
-0.00294467
-0.0082977
-0.00327794
-0.00851191
-0.00362111
-0.0087424
-0.00397467
-0.00898771
-0.00433916
-0.00924695
-0.0047152
-0.00951898
-0.00510312
-0.00980291
-0.00550317
-0.0100989
-0.00591629
-0.0104122
-0.0107716
-0.00632131
-9.99447e-05
-0.00458851
-0.000334914
-0.00701768
-0.000618408
-0.00732606
-0.000910761
-0.00724954
-0.00120577
-0.00722883
-0.00150487
-0.00726441
-0.00180946
-0.00734661
-0.00212063
-0.00746248
-0.0024393
-0.00760701
-0.00276625
-0.00777436
-0.00310216
-0.0079618
-0.00344763
-0.00816644
-0.0038032
-0.00838682
-0.00416943
-0.00862148
-0.0045469
-0.00886947
-0.00493626
-0.00912962
-0.00533769
-0.00940148
-0.00574966
-0.00968692
-0.00617023
-0.00999167
-0.0103087
-0.00663314
-0.000120165
-0.00446834
-0.00037481
-0.00676304
-0.000673121
-0.00702775
-0.000978035
-0.00694462
-0.00128499
-0.00692187
-0.00159576
-0.00695364
-0.00191186
-0.0070305
-0.0022345
-0.00713985
-0.00256465
-0.00727685
-0.00290317
-0.00743585
-0.00325076
-0.0076142
-0.00360808
-0.00780912
-0.00397571
-0.00801919
-0.00435425
-0.00824294
-0.00474432
-0.0084794
-0.00514633
-0.00872761
-0.00555998
-0.00898782
-0.00598507
-0.00926183
-0.00642715
-0.00954959
-0.00984014
-0.00689574
-0.000139471
-0.00432887
-0.000412753
-0.00648975
-0.000725115
-0.00671539
-0.00104205
-0.00662769
-0.00136046
-0.00660346
-0.00168241
-0.00663169
-0.00200955
-0.00670337
-0.00234316
-0.00680623
-0.00268431
-0.0069357
-0.00303389
-0.00708627
-0.00339267
-0.00725542
-0.00376134
-0.00744045
-0.00414052
-0.00764
-0.00453086
-0.0078526
-0.00493297
-0.0080773