/*--------------------------------*- C++ -*----------------------------------*\
  =========                 |
  \\      /  F ield         | OpenFOAM: The Open Source CFD Toolbox
   \\    /   O peration     | Website:  https://openfoam.org
    \\  /    A nd           | Version:  7
     \\/     M anipulation  |
\*---------------------------------------------------------------------------*/
FoamFile
{
    version     2.0;
    format      ascii;
    class       volVectorField;
    location    "15";
    object      U;
}
// * * * * * * * * * * * * * * * * * * * * * * * * * * * * * * * * * * * * * //

dimensions      [0 1 -1 0 0 0 0];

internalField   nonuniform List<vector> 
2625
(
(1.13905 0.217299 -2.90562e-21)
(1.13271 0.236696 1.47508e-20)
(1.13244 0.217838 4.10913e-21)
(1.12533 0.257147 -1.08077e-20)
(1.12564 0.237196 -1.32034e-20)
(1.12579 0.218229 -1.29833e-20)
(1.11671 0.279089 -1.81298e-20)
(1.11779 0.25762 -8.78523e-21)
(1.11852 0.237531 1.18368e-21)
(1.11911 0.218472 5.32808e-21)
(1.11884 0.201837 -1.2935e-20)
(1.10669 0.302431 -1.52406e-20)
(1.10868 0.279554 1.31085e-20)
(1.11019 0.25791 -3.86205e-21)
(1.11136 0.237698 -2.87421e-20)
(1.1124 0.218565 2.7083e-20)
(1.11251 0.201901 7.47059e-22)
(1.09816 0.302912 2.35515e-22)
(1.10059 0.279813 3.24117e-21)
(1.10255 0.258015 1.57614e-20)
(1.10416 0.237698 2.53612e-20)
(1.10566 0.218506 -4.50611e-20)
(1.10618 0.201823 -2.48505e-20)
(1.08587 0.327607 -3.1385e-20)
(1.08957 0.303161 -2.45871e-20)
(1.09244 0.279866 1.50868e-20)
(1.09485 0.257934 1.64689e-20)
(1.09693 0.237529 3.02941e-21)
(1.09889 0.218293 3.42211e-20)
(1.09983 0.2016 2.36389e-20)
(1.07128 0.353403 -4.31896e-21)
(1.07677 0.327873 2.47356e-20)
(1.08091 0.303178 1.95672e-20)
(1.08425 0.279713 -2.56824e-20)
(1.08713 0.257667 -1.25422e-20)
(1.08967 0.23719 -4.30967e-20)
(1.09211 0.217927 -4.698e-20)
(1.09348 0.201232 -2.00849e-20)
(1.06165 0.353721 -8.64083e-21)
(1.06759 0.327876 -2.35481e-20)
(1.0722 0.302964 -9.89203e-21)
(1.07601 0.279352 4.03528e-21)
(1.07936 0.257214 1.22965e-20)
(1.08238 0.236681 7.82214e-20)
(1.0853 0.217405 5.70905e-21)
(1.08712 0.200715 -1.14932e-20)
(1.04347 0.380298 3.70909e-20)
(1.05194 0.353743 7.18964e-20)
(1.05835 0.327617 -2.35241e-20)
(1.06345 0.302516 2.85905e-20)
(1.06774 0.278785 -7.77946e-21)
(1.07158 0.256575 -2.2385e-20)
(1.07507 0.236001 4.03568e-20)
(1.07848 0.216726 4.41479e-20)
(1.08076 0.200046 -7.99056e-21)
(1.03322 0.380383 -5.08059e-21)
(1.04215 0.353466 -4.34216e-20)
(1.04906 0.327094 1.99797e-20)
(1.05466 0.301837 2.73584e-20)
(1.05945 0.27801 4.69105e-20)
(1.06377 0.25575 -8.13903e-20)
(1.06775 0.235149 -6.32406e-20)
(1.07165 0.21589 -8.13036e-21)
(1.07439 0.199224 2.00508e-20)
(1.01047 0.407143 -6.1358e-20)
(1.02288 0.380131 6.2216e-21)
(1.03231 0.352891 9.35621e-21)
(1.03973 0.326309 -1.77735e-20)
(1.04585 0.300924 -8.93187e-20)
(1.05115 0.277029 1.88185e-20)
(1.05595 0.254738 9.94945e-20)
(1.06041 0.234127 6.13729e-21)
(1.0648 0.214896 -4.9394e-20)
(1.06803 0.198244 2.78192e-20)
(0.999581 0.40697 7.27112e-20)
(1.01247 0.379539 -1.21797e-20)
(1.02242 0.352018 3.20451e-20)
(1.03038 0.32526 -6.16146e-21)
(1.03703 0.29978 3.98468e-20)
(1.04283 0.275841 -7.58394e-21)
(1.04812 0.253542 -3.97397e-21)
(1.05306 0.232934 2.32978e-20)
(1.05794 0.213745 8.75764e-20)
(1.06167 0.197103 1.3828e-20)
(0.971027 0.43299 -4.54129e-20)
(0.988597 0.406414 -3.89785e-20)
(1.00199 0.378609 -9.77707e-21)
(1.01249 0.350846 -2.56423e-20)
(1.02101 0.323949 4.11482e-20)
(1.0282 0.298403 -2.90873e-20)
(1.03452 0.274448 -5.64541e-20)
(1.0403 0.252161 -4.85272e-20)
(1.0457 0.231573 3.72791e-20)
(1.05106 0.212437 -1.06465e-19)
(1.05531 0.195797 4.08807e-20)
(0.959494 0.432534 3.97685e-20)
(0.977534 0.405474 -9.81565e-21)
(0.991472 0.377341 -1.94686e-20)
(1.00254 0.349376 -1.73003e-20)
(1.01163 0.322376 3.86311e-20)
(1.01938 0.296795 3.3326e-21)
(1.02622 0.272849 1.23755e-20)
(1.03248 0.250598 4.63534e-22)
(1.03834 0.230044 -1.27507e-21)
(1.04417 0.210975 -4.73222e-20)
(1.04894 0.194321 -5.9448e-20)
(0.947862 0.431646 8.2316e-20)
(0.96641 0.404151 -3.5308e-20)
(0.980919 0.375735 -3.73369e-20)
(0.992584 0.347609 1.86886e-20)
(1.00227 0.32054 -1.36275e-20)
(1.01057 0.294955 -7.30963e-21)
(1.01794 0.271046 -4.7731e-20)
(1.02467 0.248853 -2.54778e-20)
(1.03099 0.22835 -1.75029e-20)
(1.03726 0.20936 8.20124e-20)
(1.04256 0.19267 -2.53596e-20)
(0.911525 0.455682 2.63925e-20)
(0.936147 0.430326 -1.1348e-19)
(0.955241 0.402445 4.14478e-20)
(0.97035 0.373791 6.982e-20)
(0.982631 0.345546 1.04293e-20)
(0.992916 0.318443 -9.08452e-20)
(1.0018 0.292885 -9.44081e-21)
(1.00969 0.26904 -3.49498e-20)
(1.0169 0.246928 3.19062e-21)
(1.02365 0.226495 -2.24538e-20)
(1.03034 0.207597 8.60399e-20)
(1.03618 0.190839 -6.43297e-20)
(0.899263 0.454435 8.71118e-20)
(0.92437 0.428573 2.1605e-20)
(0.944043 0.400356 5.85806e-20)
(0.959777 0.371511 3.03846e-20)
(0.972693 0.343186 -1.04955e-21)
(0.983596 0.316086 6.23067e-20)
(0.993055 0.290586 -1.15124e-20)
(1.00147 0.266831 1.03765e-19)
(1.00915 0.244825 2.92574e-20)
(1.01633 0.224481 -5.98437e-20)
(1.0234 0.205691 -9.04972e-20)
(1.02976 0.18882 4.29583e-20)
(0.886918 0.452703 -1.01969e-19)
(0.91255 0.426388 -2.35774e-20)
(0.932833 0.397887 -1.68549e-20)
(0.949217 0.368896 -1.04314e-20)
(0.962784 0.340531 2.33693e-20)
(0.974315 0.313468 -6.10051e-20)
(0.98436 0.288056 6.10675e-21)
(0.99331 0.264421 -6.13358e-20)
(1.00145 0.242545 7.11757e-21)
(1.00904 0.222314 -5.43549e-20)
(1.01643 0.203649 -8.38592e-20)
(1.02332 0.186607 3.24418e-20)
(0.841174 0.472827 8.85607e-20)
(0.874511 0.450486 1.92527e-20)
(0.900704 0.423773 1.01738e-19)
(0.921627 0.395039 -3.27258e-20)
(0.938681 0.365947 -8.11489e-20)
(0.952915 0.337583 -9.21921e-20)
(0.965084 0.310592 3.9977e-20)
(0.975722 0.285299 -2.41881e-20)
(0.985206 0.261809 2.83029e-20)
(0.993811 0.24009 -1.02572e-19)
(1.00179 0.219997 3.73638e-20)
(1.00944 0.201478 1.48288e-19)
(1.01681 0.184189 6.4995e-20)
(0.828255 0.470657 -9.10773e-20)
(0.862061 0.447785 6.63089e-20)
(0.888851 0.42073 -4.40841e-20)
(0.91044 0.391812 -1.5779e-20)
(0.928183 0.362667 -6.98427e-21)
(0.943098 0.334343 3.75315e-20)
(0.955914 0.307458 1.17917e-20)
(0.96715 0.282314 4.91249e-20)
(0.977172 0.258997 -1.47573e-20)
(0.98624 0.237461 1.02322e-19)
(0.994601 0.217537 1.10045e-19)
(1.00244 0.199186 3.75107e-20)
(1.01022 0.181545 -2.42355e-20)
(0.815276 0.467949 -5.07407e-20)
(0.849592 0.444603 -1.11396e-19)
(0.877009 0.41726 -1.2304e-19)
(0.899288 0.388211 7.51025e-20)
(0.917738 0.359056 4.06028e-20)
(0.933344 0.330812 6.91478e-20)
(0.946815 0.304068 1.30483e-20)
(0.958654 0.279101 -4.50315e-20)
(0.969217 0.255984 1.02836e-19)
(0.978753 0.234657 -1.34169e-19)
(0.987489 0.214941 -7.0541e-20)
(0.995446 0.196807 -1.40203e-19)
(1.00358 0.178718 -1.25903e-21)
(0.758555 0.481471 4.83402e-20)
(0.802259 0.464703 4.43528e-20)
(0.837121 0.440941 -3.36838e-21)
(0.865196 0.413366 1.2504e-19)
(0.888186 0.384236 -7.73854e-20)
(0.907357 0.355118 -4.77277e-20)
(0.923665 0.326993 -8.76693e-20)
(0.937796 0.300423 4.08667e-21)
(0.950243 0.275663 4.09303e-20)
(0.961351 0.25277 -7.52943e-20)
(0.971361 0.231678 2.51208e-19)
(0.980481 0.212206 5.62132e-20)
(0.988588 0.194392 1.665e-19)
(0.996856 0.17622 1.2492e-21)
(0.745125 0.478251 -9.71669e-20)
(0.789228 0.460922 -2.33879e-20)
(0.824671 0.436802 4.9787e-20)
(0.853429 0.409052 -7.66963e-20)
(0.87715 0.379893 1.37625e-20)
(0.897055 0.350856 6.43808e-21)
(0.914071 0.322889 -4.58173e-20)
(0.928867 0.296525 8.29597e-20)
(0.941924 0.272 -6.5188e-20)
(0.953582 0.249355 3.02775e-20)
(0.964074 0.228518 -1.11751e-19)
(0.973607 0.209308 -1.29078e-19)
(0.982008 0.191821 -1.53687e-19)
(0.990839 0.173987 3.39038e-20)
(0.731666 0.474443 8.87155e-20)
(0.776205 0.45661 1.71193e-19)
(0.812261 0.432191 1.03847e-19)
(0.841727 0.404321 7.27685e-22)
(0.866194 0.375184 4.16793e-20)
(0.886843 0.346272 9.73e-20)
(0.904574 0.318501 1.25478e-19)
(0.920038 0.292376 -1.58711e-19)
(0.933707 0.268113 1.32257e-19)
(0.945915 0.24574 -6.14229e-20)
(0.956897 0.225176 -5.21641e-20)
(0.96686 0.206238 8.78612e-20)
(0.975608 0.189037 -3.84093e-20)
(0.98488 0.171647 -6.13375e-20)
(0.718203 0.47005 -1.15013e-19)
(0.763215 0.45177 -1.1737e-19)
(0.799912 0.427111 -1.24956e-19)
(0.830105 0.399177 1.74641e-20)
(0.855332 0.370112 2.85908e-20)
(0.876734 0.341371 2.4471e-20)
(0.895184 0.313833 -4.13936e-20)
(0.911318 0.287979 8.35093e-20)
(0.925599 0.264004 -7.8394e-20)
(0.938359 0.241925 5.79425e-20)
(0.949831 0.221653 3.82288e-21)
(0.96023 0.202999 5.4709e-20)
(0.969346 0.186068 9.33946e-20)
(0.978986 0.169092 -3.88302e-20)
(0.704763 0.465075 -1.14175e-19)
(0.750279 0.446406 -4.7132e-20)
(0.787642 0.421566 6.3005e-21)
(0.81858 0.393624 -5.18575e-20)
(0.844579 0.364682 -7.10641e-20)
(0.86674 0.336154 -6.44657e-20)
(0.885911 0.308888 2.36595e-20)
(0.902715 0.283336 1.56224e-21)
(0.917607 0.259677 9.80987e-20)
(0.930917 0.237913 -1.6374e-19)
(0.942881 0.21795 1.48356e-19)
(0.953716 0.199597 -7.25336e-20)
(0.963211 0.182942 1.08984e-19)
(0.97319 0.166365 7.0485e-20)
(0.635003 0.468611 1.23267e-19)
(0.691369 0.459523 4.71928e-20)
(0.73742 0.440523 -3.35361e-20)
(0.775471 0.415563 1.63594e-19)
(0.80717 0.387669 2.17714e-19)
(0.83395 0.358899 -6.5926e-20)
(0.856873 0.330627 -2.13292e-21)
(0.876766 0.303669 -1.25167e-20)
(0.894238 0.278451 2.97599e-20)
(0.909738 0.255132 -7.51412e-20)
(0.923596 0.233706 2.40307e-19)
(0.936048 0.214071 -1.69403e-19)
(0.947318 0.196036 6.50247e-21)
(0.9572 0.179671 -1.02317e-19)
(0.967498 0.163499 -5.95249e-20)
(0.621361 0.463008 -9.05181e-20)
(0.678046 0.4534 2.29455e-19)
(0.724659 0.434128 6.7218e-20)
(0.763418 0.409106 -1.90292e-19)
(0.79589 0.381315 -1.7483e-19)
(0.823457 0.352766 2.07819e-19)
(0.847144 0.324794 -5.685e-20)
(0.867759 0.29818 9.81983e-20)
(0.885896 0.273326 -7.46798e-20)
(0.902001 0.250374 -1.16874e-20)
(0.916402 0.229308 -3.12371e-20)
(0.929339 0.210019 6.84677e-20)
(0.941039 0.192318 7.97496e-21)
(0.951309 0.176259 6.28942e-21)
(0.961914 0.160501 4.04218e-20)
(0.607784 0.456787 -1.06967e-20)
(0.66482 0.44671 -3.5267e-19)
(0.712019 0.427227 -1.001e-19)
(0.751502 0.402202 1.72519e-19)
(0.784756 0.374568 -1.1853e-19)
(0.813114 0.34629 8.87357e-22)
(0.837567 0.31866 8.23493e-20)
(0.8589 0.292425 -1.06471e-19)
(0.877697 0.267965 5.64367e-20)
(0.894401 0.245406 -3.84917e-20)
(0.90934 0.22472 -1.24794e-20)
(0.922758 0.205797 1.608e-19)
(0.934883 0.188447 -1.02023e-19)
(0.945541 0.172709 -8.63266e-20)
(0.956442 0.15737 -4.48349e-20)
(0.594299 0.449952 1.53572e-19)
(0.651715 0.439461 1.43951e-19)
(0.699519 0.419826 1.45148e-19)
(0.73974 0.394857 -1.25689e-19)
(0.773784 0.367436 1.32525e-19)
(0.802935 0.339476 -4.37094e-20)
(0.828151 0.312228 -1.2933e-19)
(0.850198 0.286408 -5.81806e-20)
(0.86965 0.262372 1.16434e-20)
(0.886947 0.24023 1.47013e-19)
(0.902418 0.219947 4.46684e-20)
(0.91631 0.201407 -2.80611e-19)
(0.928855 0.184426 1.0256e-19)
(0.939899 0.169025 1.96162e-19)
(0.951089 0.154108 4.30509e-20)
(0.580932 0.442512 -1.13555e-19)
(0.638753 0.431661 1.19403e-19)
(0.687182 0.411933 8.31581e-20)
(0.728151 0.38708 -2.18635e-21)
(0.762989 0.359925 2.62186e-20)
(0.792933 0.33233 -6.32112e-20)
(0.818908 0.305505 7.1359e-20)
(0.841663 0.280134 1.29809e-20)
(0.861763 0.25655 -8.23789e-20)
(0.879646 0.234851 -1.98561e-19)
(0.895641 0.214992 -8.23718e-20)
(0.910001 0.196853 1.8195e-19)
(0.92296 0.180256 -3.67962e-20)
(0.934387 0.165207 -1.84135e-19)
(0.945858 0.150717 1.71828e-20)
(0.499039 0.431685 -2.90585e-20)
(0.567711 0.434475 1.63393e-20)
(0.62596 0.423319 -1.68342e-19)
(0.675027 0.403558 -2.09835e-20)
(0.716752 0.378877 1.0071e-20)
(0.752386 0.352041 -1.23253e-19)
(0.78312 0.324858 4.77223e-20)
(0.809849 0.298497 1.58506e-19)
(0.833304 0.273608 -7.51092e-21)
(0.854045 0.250506 3.24394e-20)
(0.872504 0.229272 2.09004e-19)
(0.889016 0.209857 6.77535e-20)
(0.903836 0.192138 -4.13559e-20)
(0.917203 0.175941 -1.04224e-20)
(0.929007 0.161257 9.55712e-20)
(0.940755 0.147196 -4.83514e-20)
(0.485914 0.423652 -2.79738e-20)
(0.55466 0.42585 -2.64906e-20)
(0.613356 0.414444 1.35049e-19)
(0.663074 0.394708 -8.3098e-20)
(0.70556 0.370257 -3.50363e-20)
(0.74199 0.343792 1.02353e-19)
(0.773509 0.317067 5.68124e-20)
(0.800984 0.291208 3.55407e-20)
(0.825131 0.266835 1.42344e-19)
(0.846502 0.244241 -7.77264e-20)
(0.865529 0.223497 -3.22012e-20)
(0.882549 0.204546 -1.77136e-20)
(0.897821 0.187265 2.09993e-21)
(0.911589 0.171482 1.33275e-19)
(0.923766 0.157176 -1.48488e-19)
(0.935785 0.143548 1.06957e-19)
(0.472959 0.415002 1.12377e-19)
(0.541805 0.416647 1.1406e-19)
(0.600965 0.405046 -2.26008e-20)
(0.651343 0.385394 9.35219e-20)
(0.694592 0.36123 3.81816e-20)
(0.731814 0.335187 -1.25775e-19)
(0.764112 0.308965 -1.30916e-19)
(0.792324 0.283645 -1.75166e-19)
(0.817153 0.259821 -2.32132e-19)
(0.839143 0.237763 1.93128e-19)
(0.858728 0.217531 -7.54879e-20)
(0.876246 0.199064 -7.9274e-20)
(0.891962 0.182236 -4.02559e-20)
(0.906123 0.166881 -2.30878e-19)
(0.918667 0.152967 2.8492e-20)
(0.930951 0.139775 -1.08306e-19)
(0.460202 0.405744 -3.52353e-20)
(0.529171 0.406877 2.93054e-20)
(0.588809 0.395135 3.66877e-20)
(0.639853 0.375626 -1.88516e-19)
(0.683864 0.351804 -1.74975e-20)
(0.721872 0.326234 1.21904e-19)
(0.754941 0.300557 1.19197e-19)
(0.783879 0.275815 -5.96599e-20)
(0.809377 0.25257 3.4073e-20)
(0.831975 0.231074 -2.24113e-19)
(0.852107 0.211377 1.94273e-20)
(0.870113 0.193413 1.28758e-19)
(0.886264 0.177055 5.48391e-20)
(0.900811 0.162142 -2.07752e-20)
(0.913715 0.148631 -5.40788e-20)
(0.926259 0.135878 1.91075e-20)
(0.447669 0.395891 -2.14651e-19)
(0.516782 0.396553 -2.49884e-19)
(0.576909 0.384725 -1.02423e-19)
(0.628622 0.365414 -1.43894e-20)
(0.673392 0.341989 2.51873e-19)
(0.712179 0.316941 6.96952e-20)
(0.746006 0.291853 -8.52294e-20)
(0.775658 0.267725 1.44256e-19)
(0.801814 0.245089 1.92918e-19)
(0.825007 0.224181 1.09465e-20)
(0.845673 0.205041 2.93112e-20)
(0.864156 0.187597 6.75447e-22)
(0.880733 0.171725 -5.68462e-20)
(0.895656 0.157267 1.40517e-19)
(0.908913 0.144169 1.10834e-19)
(0.921711 0.131859 4.93896e-20)
(0.435386 0.385455 2.90374e-19)
(0.504662 0.385687 3.23024e-20)
(0.565286 0.373827 -7.6585e-21)
(0.617668 0.354771 1.09141e-19)
(0.663191 0.331797 -1.72656e-19)
(0.702747 0.307317 -3.39763e-20)
(0.73732 0.28286 -1.50411e-19)
(0.767672 0.259381 4.5908e-20)
(0.79447 0.237384 -1.96637e-19)
(0.818245 0.217089 -7.32541e-21)
(0.839432 0.198526 -1.62438e-19)
(0.858381 0.181621 -5.53058e-20)
(0.875372 0.166249 6.26908e-20)
(0.890664 0.152258 -8.37723e-21)
(0.904265 0.139586 6.02188e-20)
(0.917312 0.127721 8.17401e-20)
(0.423379 0.37445 -2.0414e-19)
(0.492834 0.374294 2.1243e-20)
(0.553961 0.362454 6.65449e-21)
(0.607009 0.343708 -1.58018e-19)
(0.653276 0.321236 -1.64025e-19)
(0.693588 0.297373 1.26234e-19)
(0.728893 0.273586 1.18965e-19)
(0.759929 0.25079 3.57886e-20)
(0.787355 0.229462 4.2661e-21)
(0.811696 0.209804 9.64729e-21)
(0.833391 0.191838 1.43957e-19)
(0.852792 0.175489 -3.53089e-20)
(0.870188 0.160632 -5.13197e-20)
(0.885839 0.147119 5.30029e-21)
(0.899776 0.134883 -1.58172e-20)
(0.913064 0.123467 -5.70437e-20)
(0.411673 0.362891 -6.80259e-20)
(0.48132 0.362388 -4.21111e-20)
(0.542952 0.35062 6.84542e-20)
(0.596661 0.332238 1.17215e-19)
(0.643661 0.31032 1.01236e-19)
(0.684715 0.287118 -1.46678e-19)
(0.720735 0.264041 -1.11089e-19)
(0.752439 0.241961 -4.64934e-20)
(0.780475 0.221329 1.65359e-19)
(0.805367 0.202331 2.93625e-20)
(0.827555 0.184982 -1.45562e-19)
(0.847397 0.169205 -5.92869e-20)
(0.865185 0.154877 1.17606e-20)
(0.881185 0.141854 -8.97265e-20)
(0.895448 0.130063 -9.49176e-20)
(0.908972 0.119099 1.49378e-20)
(0.321141 0.3354 -2.10086e-19)
(0.40029 0.350794 2.40237e-19)
(0.470141 0.349984 2.46212e-21)
(0.532278 0.338339 4.29313e-20)
(0.58664 0.320374 -6.25337e-21)
(0.634361 0.299059 -6.36194e-20)
(0.67614 0.276563 -1.74015e-20)
(0.712858 0.254233 -3.59665e-20)
(0.74521 0.232902 -5.47074e-20)
(0.773838 0.212992 -1.49832e-22)
(0.799265 0.194677 1.28398e-20)
(0.821931 0.177964 8.78236e-20)
(0.842199 0.162774 -4.31347e-20)
(0.860367 0.148988 5.09496e-20)
(0.876706 0.136466 8.38731e-20)
(0.891284 0.125129 -3.1766e-20)
(0.905038 0.114621 -1.17623e-19)
(0.310343 0.323655 -5.4729e-21)
(0.389256 0.338176 -3.7279e-20)
(0.45932 0.337098 7.31539e-20)
(0.521959 0.325628 -1.7745e-19)
(0.576964 0.30813 -1.27719e-21)
(0.625389 0.287466 8.79764e-20)
(0.667874 0.265717 1.11374e-19)
(0.705269 0.244172 2.4391e-19)
(0.738251 0.22362 -7.96913e-21)
(0.767453 0.204459 3.43003e-20)
(0.793396 0.186847 -6.35279e-20)
(0.816524 0.170788 4.98162e-20)
(0.837203 0.156202 -4.79645e-20)
(0.855739 0.14297 -5.65766e-20)
(0.872405 0.130959 4.33006e-20)
(0.887289 0.120086 5.49619e-20)
(0.901264 0.110037 9.01622e-20)
(0.299892 0.311389 8.03089e-20)
(0.378592 0.325054 -9.75225e-20)
(0.448875 0.323748 -7.29791e-20)
(0.512012 0.3125 1.80693e-19)
(0.567646 0.29552 -5.80435e-20)
(0.616757 0.275552 5.69581e-20)
(0.659929 0.254593 -4.43071e-20)
(0.697979 0.233868 -1.70448e-19)
(0.731569 0.214124 1.50161e-19)
(0.761324 0.195736 -5.11024e-20)
(0.787765 0.178849 1.75372e-19)
(0.811338 0.163461 6.74268e-20)
(0.832415 0.149492 1.74452e-19)
(0.851305 0.136827 3.63399e-20)
(0.868286 0.125337 -7.81042e-20)
(0.883465 0.114936 -9.45107e-21)
(0.897654 0.10535 2.36493e-20)
(0.289812 0.29862 4.71606e-20)
(0.36832 0.311447 9.37829e-20)
(0.438828 0.309952 1.38533e-19)
(0.502454 0.298973 -1.22541e-19)
(0.558701 0.282558 1.02403e-19)
(0.608479 0.263333 -1.32049e-19)
(0.652314 0.243201 -5.28545e-20)
(0.690997 0.223329 -2.22765e-20)
(0.725172 0.204422 -1.74512e-19)
(0.75546 0.186831 1.72903e-21)
(0.78238 0.170688 -1.72365e-19)
(0.80638 0.155988 -1.66922e-19)
(0.827838 0.142651 -1.05756e-19)
(0.847068 0.130564 -2.00928e-20)
(0.864352 0.119604 2.00769e-20)
(0.879814 0.109685 3.69262e-20)
(0.894209 0.100565 -5.44085e-20)
(0.280125 0.285367 -5.21281e-20)
(0.358461 0.297375 -1.67941e-19)
(0.429196 0.295728 -1.48503e-19)
(0.4933 0.285064 1.3328e-19)
(0.550144 0.269259 -6.01064e-20)
(0.600565 0.250819 7.70023e-20)
(0.645039 0.231554 5.7676e-20)
(0.684331 0.212567 3.25355e-20)
(0.719068 0.194524 -1.0392e-19)
(0.749867 0.177752 7.29799e-21)
(0.777244 0.162373 2.52793e-20)
(0.801654 0.148376 -3.33422e-20)
(0.823477 0.135683 1.02329e-19)
(0.843033 0.124186 -8.44496e-21)
(0.860607 0.113766 -4.51686e-20)
(0.87634 0.104335 5.66639e-21)
(0.890933 0.0956847 5.16147e-21)
(0.270852 0.27165 -1.68378e-19)
(0.349035 0.282858 2.85183e-19)
(0.419996 0.281094 2.51037e-20)
(0.484567 0.27079 1.26654e-20)
(0.541987 0.25564 1.22259e-19)
(0.593028 0.238026 -2.85649e-20)
(0.638115 0.219663 -1.01734e-20)
(0.677989 0.201592 -4.12447e-20)
(0.713264 0.184439 9.50489e-20)
(0.74455 0.168508 -3.81142e-20)
(0.772365 0.15391 5.06562e-20)
(0.797165 0.140631 1.84365e-19)
(0.819335 0.128595 1.96993e-20)
(0.839202 0.117698 -9.08451e-21)
(0.857054 0.107826 5.70598e-20)
(0.873045 0.0988914 -3.75877e-20)
(0.887826 0.0907143 4.10728e-20)
(0.262014 0.257492 1.56692e-19)
(0.340062 0.267918 -1.00353e-19)
(0.411248 0.266072 4.51564e-20)
(0.47627 0.256169 -7.26777e-20)
(0.534243 0.241716 -4.18176e-20)
(0.585877 0.224967 4.15939e-20)
(0.63155 0.20754 -9.56516e-20)
(0.67198 0.190414 5.92668e-20)
(0.707766 0.174175 3.52819e-20)
(0.739515 0.159106 6.51828e-20)
(0.767746 0.145306 -4.11339e-20)
(0.792917 0.13276 -1.81297e-20)
(0.815418 0.121393 -7.47563e-20)
(0.83558 0.111106 -2.32536e-20)
(0.853694 0.101789 -3.06961e-20)
(0.869932 0.0933587 1.05239e-20)
(0.884892 0.0856581 2.03685e-20)
(0.253631 0.242914 5.83765e-20)
(0.331558 0.252575 -1.48402e-19)
(0.402965 0.250681 -3.54429e-20)
(0.468421 0.241219 1.0619e-19)
(0.526924 0.227504 9.08289e-21)
(0.579123 0.211656 3.23384e-20)
(0.625353 0.195198 1.29851e-19)
(0.666309 0.179045 -9.03908e-20)
(0.70258 0.163744 1.72524e-21)
(0.734768 0.149555 -1.01723e-20)
(0.763392 0.136569 5.33948e-20)
(0.788914 0.124769 -1.23581e-19)
(0.811727 0.114082 8.37297e-20)
(0.832169 0.104414 1.08526e-19)
(0.850532 0.0956613 -3.12539e-20)
(0.867001 0.0877416 -8.00779e-20)
(0.882133 0.0805206 -8.47998e-20)
(0.24572 0.22794 -5.55047e-20)
(0.323542 0.236852 1.70515e-19)
(0.395165 0.234942 7.89618e-20)
(0.461035 0.22596 -2.00961e-21)
(0.520041 0.21302 7.88428e-20)
(0.572776 0.198109 -1.17319e-19)
(0.619532 0.18265 8.8133e-20)
(0.660986 0.167496 1.19723e-19)
(0.697713 0.153154 -7.54188e-20)
(0.730314 0.139864 -4.55902e-21)
(0.759308 0.127707 -8.00093e-20)
(0.78516 0.116665 1.11946e-19)
(0.808268 0.106669 -7.01057e-20)
(0.828971 0.0976288 9.76907e-20)
(0.84757 0.0894474 -3.25963e-20)
(0.864257 0.0820448 6.81794e-20)
(0.879549 0.0753067 -3.6244e-20)
(0.238299 0.212593 1.46593e-20)
(0.316029 0.220773 -1.88561e-19)
(0.38786 0.218877 -1.27382e-19)
(0.454125 0.21041 -5.92227e-20)
(0.513606 0.198281 -1.71969e-19)
(0.566844 0.18434 4.12573e-20)
(0.614095 0.169909 -1.16347e-19)
(0.656015 0.155778 -1.30299e-19)
(0.69317 0.142415 8.00353e-20)
(0.726158 0.130041 4.81927e-20)
(0.755498 0.118728 3.40828e-21)
(0.781659 0.108456 -9.20664e-20)
(0.805042 0.0991606 -4.06368e-20)
(0.825991 0.0907561 -1.77726e-19)
(0.844809 0.0831526 9.55172e-20)
(0.861701 0.0762733 -6.38625e-20)
(0.877142 0.070021 1.03111e-19)
(0.231385 0.196898 -4.70907e-21)
(0.309035 0.204361 1.50643e-19)
(0.381065 0.202508 7.33156e-20)
(0.4477 0.19459 -7.71619e-20)
(0.507626 0.183305 2.52422e-20)
(0.561336 0.170364 -1.34947e-19)
(0.609048 0.156988 7.62444e-20)
(0.651402 0.143903 1.32321e-19)
(0.688957 0.131539 -5.49648e-20)
(0.722304 0.120096 -2.82337e-20)
(0.751967 0.109639 4.59486e-20)
(0.778414 0.100148 4.01745e-20)
(0.802053 0.0915624 5.44854e-20)
(0.82323 0.0838017 9.19315e-20)
(0.842252 0.0767826 -1.83434e-20)
(0.859333 0.0704321 6.04765e-20)
(0.874915 0.0646686 -4.57514e-20)
(0.224993 0.18088 8.36025e-20)
(0.302573 0.187642 4.50565e-21)
(0.374792 0.185857 8.30583e-21)
(0.441773 0.178519 9.42053e-20)
(0.502113 0.16811 2.31641e-21)
(0.556259 0.156198 1.34571e-19)
(0.604399 0.143901 3.06963e-20)
(0.647155 0.131882 5.30143e-20)
(0.685077 0.120534 7.19663e-20)
(0.718757 0.110037 -9.03427e-20)
(0.748716 0.100449 3.69104e-20)
(0.775429 0.0917493 -1.02401e-20)
(0.799303 0.0838815 -4.69696e-20)
(0.820691 0.0767717 -1.68026e-21)
(0.839901 0.0703428 -1.95919e-20)
(0.857158 0.0645266 4.21553e-20)
(0.872868 0.0592545 1.23745e-20)
(0.219136 0.164565 -1.78018e-19)
(0.296657 0.170639 3.9744e-20)
(0.369052 0.168947 2.04011e-20)
(0.436352 0.162219 -2.45044e-20)
(0.497074 0.152714 1.55215e-20)
(0.551621 0.141856 -6.64783e-20)
(0.600153 0.130661 -1.02293e-19)
(0.643277 0.119729 -1.32495e-19)
(0.681536 0.109413 -3.08558e-20)
(0.715519 0.0998746 8.9821e-20)
(0.745751 0.0911656 4.20637e-20)
(0.772705 0.0832667 -1.03337e-20)
(0.796795 0.0761247 -1.53825e-20)
(0.818376 0.0696722 -3.1808e-20)
(0.837758 0.063839 2.12654e-20)
(0.855175 0.0585618 -6.05578e-20)
(0.871003 0.0537838 -3.08397e-20)
(0.138301 0.131542 -1.13809e-19)
(0.213828 0.147979 1.02929e-19)
(0.291298 0.153378 -1.17632e-19)
(0.363855 0.151802 7.93438e-20)
(0.431448 0.14571 -1.05743e-20)
(0.492516 0.137135 8.27099e-21)
(0.547428 0.127355 7.54744e-20)
(0.596315 0.117282 -7.79099e-20)
(0.639773 0.107454 8.86268e-20)
(0.678337 0.0981842 -3.09744e-20)
(0.712596 0.0896176 -1.35906e-21)
(0.743073 0.0817982 -6.30538e-20)
(0.770247 0.0747081 -4.54938e-21)
(0.794531 0.0682989 4.93445e-20)
(0.816287 0.0625096 1.45785e-21)
(0.835824 0.057277 1.40868e-20)
(0.853386 0.0525433 1.53252e-20)
(0.869322 0.0482616 2.60093e-20)
(0.133953 0.116628 3.86033e-21)
(0.20908 0.13115 3.87838e-20)
(0.286508 0.135885 1.04052e-19)
(0.359213 0.134446 -7.76015e-20)
(0.427068 0.129014 -2.58895e-20)
(0.488448 0.121391 3.20837e-21)
(0.543686 0.112711 1.24684e-20)
(0.592892 0.10378 2.06868e-20)
(0.636648 0.0950703 -6.48785e-20)
(0.675485 0.0868602 -1.52118e-20)
(0.709989 0.0792757 -8.21672e-21)
(0.740686 0.0723549 9.44582e-21)
(0.768055 0.0660811 -2.45259e-20)
(0.792514 0.0604111 -1.64281e-20)
(0.814425 0.0552903 1.24177e-20)
(0.834101 0.0506627 -9.5841e-21)
(0.851792 0.0464764 4.64798e-20)
(0.867824 0.0426933 -2.87679e-20)
(0.130126 0.101505 -5.12568e-20)
(0.204902 0.114105 -5.95487e-20)
(0.282295 0.118187 -8.12686e-20)
(0.355131 0.116902 -2.63584e-20)
(0.42322 0.11215 1.61147e-20)
(0.484874 0.105502 4.57351e-22)
(0.540401 0.0979408 1.67858e-20)
(0.589886 0.0901667 -3.06663e-20)
(0.633905 0.0825903 4.83808e-20)
(0.672982 0.0754514 -1.66528e-20)
(0.707702 0.0688587 -1.9147e-20)
(0.738592 0.0628444 -5.83983e-21)
(0.766133 0.0573936 2.16016e-20)
(0.790745 0.0524682 -3.8828e-20)
(0.812792 0.0480207 3.93454e-20)
(0.832591 0.0440021 -2.97235e-20)
(0.850396 0.0403668 2.13068e-20)
(0.866511 0.037084 3.62746e-20)
(0.126829 0.0862002 9.58894e-20)
(0.201304 0.0968714 1.71401e-20)
(0.278668 0.100309 -5.25765e-20)
(0.351619 0.0991947 -6.35657e-21)
(0.419909 0.0951427 -2.76837e-20)
(0.481801 0.0894861 2.68067e-20)
(0.537576 0.0830602 -3.91425e-20)
(0.587303 0.0764578 1.80086e-20)
(0.631548 0.0700266 -7.70665e-20)
(0.670831 0.0639689 8.01798e-21)
(0.705737 0.0583763 1.47108e-20)
(0.736793 0.0532755 1.27e-20)
(0.764482 0.0486535 1.58042e-20)
(0.789225 0.0444776 1.14904e-20)
(0.811391 0.0407073 -2.69227e-20)
(0.831294 0.0373011 3.05388e-20)
(0.849196 0.0342198 -3.88526e-20)
(0.865384 0.0314392 -2.27977e-20)
(0.124069 0.0707403 -4.79833e-20)
(0.198294 0.079478 5.41992e-20)
(0.275635 0.0822797 6.98586e-20)
(0.348683 0.0813491 1.13959e-20)
(0.417142 0.0780122 1.07848e-21)
(0.479233 0.073363 -1.442e-20)
(0.535216 0.0680863 -1.69508e-23)
(0.585145 0.0626677 6.00758e-20)
(0.629579 0.0573918 3.95804e-20)
(0.669035 0.0524238 -2.1658e-20)
(0.704097 0.0478384 -2.46528e-20)
(0.735291 0.043657 -5.28125e-20)
(0.763103 0.0398686 -3.57616e-20)
(0.787957 0.0364464 2.99029e-20)
(0.810221 0.0333569 9.97855e-21)
(0.830212 0.030566 -4.20881e-20)
(0.848196 0.0280413 -1.5056e-20)
(0.864444 0.0257642 1.18109e-20)
(0.121853 0.0551532 -2.58009e-20)
(0.195878 0.0619534 -4.72193e-20)
(0.273201 0.0641254 -3.73853e-20)
(0.346327 0.0633899 1.35095e-21)
(0.414923 0.0607811 -7.82697e-21)
(0.477174 0.0571518 -3.54355e-20)
(0.533324 0.0530357 1.1936e-20)
(0.583416 0.048811 -1.56539e-20)
(0.628002 0.0446987 -1.83518e-20)
(0.667596 0.0408275 3.96599e-20)
(0.702782 0.037255 7.53993e-21)
(0.734088 0.0339978 4.34164e-20)
(0.761999 0.0310471 2.75537e-20)
(0.786941 0.0283818 -1.23641e-20)
(0.809283 0.0259759 -1.49354e-20)
(0.829346 0.0238027 -9.4458e-21)
(0.847394 0.0218369 3.62446e-20)
(0.863691 0.0200646 1.58763e-20)
(0.120186 0.0394668 2.41531e-20)
(0.194061 0.0443261 -2.00667e-21)
(0.271371 0.0458738 3.08558e-20)
(0.344557 0.0453421 1.95484e-20)
(0.413255 0.0434714 3.17063e-20)
(0.475627 0.040872 1.65883e-20)
(0.531903 0.0379255 -3.68088e-21)
(0.582117 0.0349022 1.76623e-20)
(0.626817 0.0319602 1.86641e-20)
(0.666515 0.0291911 -3.92487e-21)
(0.701795 0.0266361 -2.42085e-20)
(0.733184 0.0243069 -2.002e-20)
(0.76117 0.022197 -5.89407e-21)
(0.786178 0.0202913 -1.03649e-20)
(0.80858 0.0185713 1.98954e-20)
(0.828695 0.0170176 1.57997e-20)
(0.846793 0.0156122 -2.18977e-20)
(0.863126 0.0143456 -5.26627e-21)
(0.119072 0.023709 -6.33003e-21)
(0.192847 0.0266254 1.35679e-21)
(0.270149 0.0275524 -2.45866e-20)
(0.343375 0.0272309 1.49317e-21)
(0.412142 0.0261055 -1.10537e-20)
(0.474594 0.024543 9.28446e-21)
(0.530955 0.0227725 -1.0845e-20)
(0.581249 0.0209563 -1.05154e-20)
(0.626026 0.0191892 3.32334e-21)
(0.665794 0.0175262 -8.34041e-21)
(0.701136 0.0159919 1.25592e-20)
(0.732581 0.0145932 2.25164e-20)
(0.760617 0.0133264 8.64235e-21)
(0.785669 0.0121822 1.33198e-20)
(0.80811 0.0111496 -1.60456e-20)
(0.828261 0.0102168 9.37411e-21)
(0.846392 0.00937311 4.88975e-21)
(0.862749 0.00861285 -5.78459e-21)
(0.580816 0.006988 -4.87065e-21)
(0.62563 0.00639864 -8.12214e-22)
(0.665433 0.00584402 -4.57117e-22)
(0.700807 0.00533236 2.75686e-21)
(0.73228 0.00486595 -2.7613e-21)
(0.76034 0.00444351 -6.9637e-21)
(0.785415 0.00406199 -2.29355e-21)
(0.807875 0.00371764 5.42018e-21)
(0.828044 0.00340663 8.69951e-22)
(0.846191 0.0031253 -3.72134e-21)
(0.862561 0.00287183 -1.2765e-21)
(1.01069 0.171158 -8.95321e-21)
(1.01698 0.173569 -6.98193e-23)
(1.02281 0.175806 -6.17436e-20)
(1.02872 0.1779 2.90816e-20)
(1.03464 0.179847 2.07288e-20)
(1.04057 0.18164 9.23255e-20)
(1.04653 0.183279 1.3224e-21)
(1.0525 0.184765 -2.35158e-20)
(1.05849 0.186099 -1.74406e-20)
(1.0645 0.187286 -1.55105e-21)
(1.07052 0.188326 2.30074e-20)
(1.07656 0.189223 1.56307e-20)
(1.08261 0.189979 -2.34448e-20)
(1.08867 0.190596 2.23015e-21)
(1.09474 0.191077 1.49812e-20)
(1.01289 0.169082 -1.11784e-20)
(1.0191 0.171313 -1.11697e-20)
(1.02471 0.173411 4.923e-20)
(1.03042 0.175396 -1.43821e-20)
(1.03618 0.177255 -1.19954e-20)
(1.04197 0.178976 -6.90972e-20)
(1.04778 0.180556 4.20526e-20)
(1.05362 0.181994 2.99981e-20)
(1.05949 0.183292 5.38218e-20)
(1.06539 0.184449 -2.04228e-20)
(1.0713 0.185468 -3.21342e-21)
(1.07724 0.18635 -1.18205e-20)
(1.0832 0.187096 2.56506e-20)
(1.08916 0.18771 2.78576e-20)
(1.01507 0.16727 6.17595e-20)
(1.02114 0.169321 2.19912e-20)
(1.02655 0.171275 -4.3466e-20)
(1.03211 0.173132 -3.46739e-20)
(1.03772 0.174883 -2.20042e-20)
(1.04336 0.176512 1.63166e-20)
(1.04905 0.178014 -5.58924e-21)
(1.05477 0.179387 -1.31415e-20)
(1.06052 0.18063 2.84342e-21)
(1.06631 0.181743 4.00423e-20)
(1.07212 0.182725 -4.79365e-21)
(1.07796 0.183577 2.64343e-20)
(1.08381 0.184301 4.62041e-21)
(1.01734 0.165503 -8.96831e-20)
(1.02326 0.167376 -3.20075e-20)
(1.02849 0.169191 5.2385e-20)
(1.03389 0.170922 4.67386e-20)
(1.03936 0.172561 5.11992e-20)
(1.04486 0.174094 -1.06119e-20)
(1.05042 0.175514 -3.01499e-20)
(1.05601 0.176817 -7.33957e-21)
(1.06165 0.178 -2.29805e-20)
(1.06732 0.179062 -4.3925e-20)
(1.07302 0.180002 2.13151e-20)
(1.07875 0.180819 1.60729e-20)
(1.01965 0.163749 2.95466e-20)
(1.02542 0.16546 8.88336e-21)
(1.03051 0.167142 -6.86231e-20)
(1.03576 0.168751 -6.80306e-21)
(1.04108 0.17028 -3.14995e-21)
(1.04646 0.171716 1.33783e-20)
(1.05188 0.173051 -2.49824e-20)
(1.05735 0.174279 -8.98834e-21)
(1.06286 0.175398 9.37582e-22)
(1.06842 0.176404 5.61896e-20)
(1.07401 0.177297 -1.25328e-20)
(1.07963 0.178076 -5.08467e-20)
(1.02197 0.161998 1.30948e-20)
(1.0276 0.163572 9.26242e-21)
(1.03256 0.165131 7.96065e-20)
(1.03767 0.166624 2.97598e-21)