# Forces      
# CofR        : (0.000000e+00 0.000000e+00 0.000000e+00)
# Time        forces(pressure viscous porous)	moments(pressure viscous porous)
0.005         	((1.721567e+01 -3.982467e-07 3.012860e-19) (9.189995e-01 -2.543446e-09 -1.205291e-20) (0.000000e+00 0.000000e+00 0.000000e+00)) ((6.300091e-19 2.268049e-18 -1.939009e-13) (-7.837268e-20 1.011405e-19 8.292631e-12) (0.000000e+00 0.000000e+00 0.000000e+00))
0.01          	((-2.188534e-01 3.770969e-07 -1.623555e-20) (7.642975e-01 3.495597e-09 8.561513e-22) (0.000000e+00 0.000000e+00 0.000000e+00)) ((-7.945072e-21 -2.871268e-20 2.609030e-13) (-5.041131e-22 9.737763e-20 -3.339939e-09) (0.000000e+00 0.000000e+00 0.000000e+00))
0.015         	((6.451401e-01 -8.692088e-08 1.312156e-20) (6.537446e-01 2.133143e-10 -3.290861e-22) (0.000000e+00 0.000000e+00 0.000000e+00)) ((2.373359e-20 8.509564e-20 5.433954e-15) (-4.244868e-21 8.281662e-20 -2.563892e-09) (0.000000e+00 0.000000e+00 0.000000e+00))
0.02          	((5.085037e-01 5.717849e-08 9.427586e-21) (5.696878e-01 -1.356925e-09 -1.699145e-22) (0.000000e+00 0.000000e+00 0.000000e+00)) ((1.860838e-20 6.702384e-20 4.140664e-14) (-3.589575e-21 7.238682e-20 -3.784728e-09) (0.000000e+00 0.000000e+00 0.000000e+00))
0.025         	((4.674146e-01 2.833533e-08 7.840024e-21) (5.051945e-01 -2.848005e-09 -8.446330e-23) (0.000000e+00 0.000000e+00 0.000000e+00)) ((1.707920e-20 6.159467e-20 -9.766487e-14) (-3.335036e-21 6.429024e-20 -4.337292e-09) (0.000000e+00 0.000000e+00 0.000000e+00))
0.03          	((4.254886e-01 2.481412e-08 6.578948e-21) (4.543612e-01 -3.544280e-09 -8.621944e-24) (0.000000e+00 0.000000e+00 0.000000e+00)) ((1.552912e-20 5.606180e-20 -3.345794e-14) (-3.086949e-21 5.789860e-20 -4.608583e-09) (0.000000e+00 0.000000e+00 0.000000e+00))
0.035         	((3.921380e-01 2.090574e-08 5.656275e-21) (4.138678e-01 -3.941905e-09 5.457316e-23) (0.000000e+00 0.000000e+00 0.000000e+00)) ((1.429839e-20 5.166148e-20 -3.119303e-14) (-2.880296e-21 5.279284e-20 -4.685426e-09) (0.000000e+00 0.000000e+00 0.000000e+00))
0.04          	((3.644356e-01 1.796208e-08 4.960196e-21) (3.811614e-01 -4.109631e-09 1.081209e-22) (0.000000e+00 0.000000e+00 0.000000e+00)) ((1.327693e-20 4.800661e-20 -3.423597e-14) (-2.703787e-21 4.866025e-20 -4.642477e-09) (0.000000e+00 0.000000e+00 0.000000e+00))
0.045         	((3.414223e-01 1.636798e-08 4.421957e-21) (3.544174e-01 -4.130180e-09 1.541237e-22) (0.000000e+00 0.000000e+00 0.000000e+00)) ((1.242832e-20 4.497017e-20 -1.802368e-14) (-2.552795e-21 4.527467e-20 -4.528191e-09) (0.000000e+00 0.000000e+00 0.000000e+00))
0.05          	((3.220936e-01 1.326241e-08 3.995257e-21) (3.322815e-01 -4.042463e-09 1.940154e-22) (0.000000e+00 0.000000e+00 0.000000e+00)) ((1.171503e-20 4.241963e-20 -2.634497e-14) (-2.422638e-21 4.246778e-20 -4.374432e-09) (0.000000e+00 0.000000e+00 0.000000e+00))
0.055         	((3.057025e-01 1.471508e-08 3.649784e-21) (3.137436e-01 -3.766504e-09 2.290417e-22) (0.000000e+00 0.000000e+00 0.000000e+00)) ((1.110985e-20 4.025627e-20 -4.528731e-14) (-2.309672e-21 4.011352e-20 -3.072365e-09) (0.000000e+00 0.000000e+00 0.000000e+00))
0.06          	((2.916670e-01 1.300796e-08 3.364581e-21) (2.980413e-01 -3.373752e-09 2.600686e-22) (0.000000e+00 0.000000e+00 0.000000e+00)) ((1.059082e-20 3.840337e-20 -2.478588e-14) (-2.210934e-21 3.811681e-20 -2.113988e-09) (0.000000e+00 0.000000e+00 0.000000e+00))
0.065         	((2.795336e-01 1.172907e-08 3.125280e-21) (2.845952e-01 -2.983656e-09 2.878163e-22) (0.000000e+00 0.000000e+00 0.000000e+00)) ((1.014126e-20 3.680119e-20 1.490852e-14) (-2.124053e-21 3.640509e-20 -1.412100e-09) (0.000000e+00 0.000000e+00 0.000000e+00))
0.07          	((2.689482e-01 1.043591e-08 2.921404e-21) (2.729613e-01 -2.613741e-09 3.128862e-22) (0.000000e+00 0.000000e+00 0.000000e+00)) ((9.748663e-21 3.540301e-20 1.245464e-14) (-2.047049e-21 3.492259e-20 -9.015135e-10) (0.000000e+00 0.000000e+00 0.000000e+00))
0.075         	((2.596376e-01 1.174235e-08 2.745472e-21) (2.627966e-01 -2.256372e-09 3.356908e-22) (0.000000e+00 0.000000e+00 0.000000e+00)) ((9.402428e-21 3.417286e-20 9.407836e-14) (-1.978411e-21 3.362622e-20 -5.334161e-10) (0.000000e+00 0.000000e+00 0.000000e+00))
0.08          	((2.513853e-01 9.552096e-09 2.592416e-21) (2.538344e-01 -1.939668e-09 3.566055e-22) (0.000000e+00 0.000000e+00 0.000000e+00)) ((9.094988e-21 3.308221e-20 6.978105e-14) (-1.916909e-21 3.248232e-20 -2.714337e-10) (0.000000e+00 0.000000e+00 0.000000e+00))
0.085         	((2.440145e-01 1.026878e-08 2.457306e-21) (2.458655e-01 -1.664184e-09 3.758832e-22) (0.000000e+00 0.000000e+00 0.000000e+00)) ((8.819905e-21 3.210778e-20 7.000220e-14) (-1.861460e-21 3.146451e-20 -8.750376e-11) (0.000000e+00 0.000000e+00 0.000000e+00))
0.09          	((2.373862e-01 9.139424e-09 2.337120e-21) (2.387250e-01 -1.417189e-09 3.938214e-22) (0.000000e+00 0.000000e+00 0.000000e+00)) ((8.572645e-21 3.123125e-20 6.516128e-14) (-1.811058e-21 3.055197e-20 3.807836e-11) (0.000000e+00 0.000000e+00 0.000000e+00))
0.095         	((2.313918e-01 8.302365e-09 2.228975e-21) (2.322813e-01 -1.194133e-09 4.105960e-22) (0.000000e+00 0.000000e+00 0.000000e+00)) ((8.348225e-21 3.043832e-20 6.367012e-14) (-1.765153e-21 2.972810e-20 1.208024e-10) (0.000000e+00 0.000000e+00 0.000000e+00))
0.1           	((2.259385e-01 6.532314e-09 2.131529e-21) (2.264289e-01 -6.150215e-10 4.263292e-22) (0.000000e+00 0.000000e+00 0.000000e+00)) ((8.143572e-21 2.971674e-20 6.293780e-14) (-1.723180e-21 2.897952e-20 8.617400e-10) (0.000000e+00 0.000000e+00 0.000000e+00))
0.105         	((2.209541e-01 6.951590e-09 2.042963e-21) (2.210824e-01 2.598608e-10 4.411548e-22) (0.000000e+00 0.000000e+00 0.000000e+00)) ((7.956008e-21 2.905700e-20 7.305885e-14) (-1.684662e-21 2.829542e-20 1.389904e-09) (0.000000e+00 0.000000e+00 0.000000e+00))
0.11          	((2.163766e-01 7.565343e-09 1.962236e-21) (2.161727e-01 1.046675e-09 4.551883e-22) (0.000000e+00 0.000000e+00 0.000000e+00)) ((7.783960e-21 2.845101e-20 5.801437e-14) (-1.649048e-21 2.766702e-20 1.758720e-09) (0.000000e+00 0.000000e+00 0.000000e+00))
0.115         	((2.121522e-01 7.745015e-09 1.887753e-21) (2.116427e-01 1.737680e-09 4.685020e-22) (0.000000e+00 0.000000e+00 0.000000e+00)) ((7.624851e-21 2.789162e-20 7.248521e-14) (-1.616054e-21 2.708704e-20 2.009367e-09) (0.000000e+00 0.000000e+00 0.000000e+00))
0.12          	((2.082429e-01 7.918576e-09 1.819353e-21) (2.074450e-01 2.307931e-09 4.812028e-22) (0.000000e+00 0.000000e+00 0.000000e+00)) ((7.477476e-21 2.737379e-20 7.597593e-14) (-1.585402e-21 2.654949e-20 2.171134e-09) (0.000000e+00 0.000000e+00 0.000000e+00))
0.125         	((2.046093e-01 8.307420e-09 1.755615e-21) (2.035401e-01 2.773199e-09 4.933211e-22) (0.000000e+00 0.000000e+00 0.000000e+00)) ((7.340082e-21 2.689235e-20 9.421431e-14) (-1.556831e-21 2.604934e-20 2.267052e-09) (0.000000e+00 0.000000e+00 0.000000e+00))
0.13          	((2.012225e-01 8.556345e-09 1.696441e-21) (1.998950e-01 3.149781e-09 5.049193e-22) (0.000000e+00 0.000000e+00 0.000000e+00)) ((7.211889e-21 2.644348e-20 9.632140e-14) (-1.530128e-21 2.558238e-20 2.313928e-09) (0.000000e+00 0.000000e+00 0.000000e+00))
0.135         	((1.980556e-01 8.733307e-09 1.641184e-21) (1.964814e-01 3.443435e-09 5.160451e-22) (0.000000e+00 0.000000e+00 0.000000e+00)) ((7.091787e-21 2.602365e-20 8.993695e-14) (-1.505093e-21 2.514499e-20 2.324801e-09) (0.000000e+00 0.000000e+00 0.000000e+00))
0.14          	((1.950879e-01 8.476415e-09 1.589688e-21) (1.932756e-01 3.659799e-09 5.267040e-22) (0.000000e+00 0.000000e+00 0.000000e+00)) ((6.978868e-21 2.563018e-20 8.950366e-14) (-1.481588e-21 2.473419e-20 2.309055e-09) (0.000000e+00 0.000000e+00 0.000000e+00))
0.145         	((1.922978e-01 3.292383e-09 1.541283e-21) (1.902575e-01 4.142002e-09 5.369345e-22) (0.000000e+00 0.000000e+00 0.000000e+00)) ((6.872448e-21 2.526013e-20 6.677419e-14) (-1.459488e-21 2.434738e-20 3.987374e-09) (0.000000e+00 0.000000e+00 0.000000e+00))
0.15          	((1.896695e-01 5.194784e-09 1.495782e-21) (1.874088e-01 4.814824e-09 5.467711e-22) (0.000000e+00 0.000000e+00 0.000000e+00)) ((6.771868e-21 2.491149e-20 7.463812e-14) (-1.438654e-21 2.398223e-20 5.235845e-09) (0.000000e+00 0.000000e+00 0.000000e+00))
0.155         	((1.871893e-01 5.626901e-09 1.452381e-21) (1.847141e-01 5.395433e-09 5.562837e-22) (0.000000e+00 0.000000e+00 0.000000e+00)) ((6.677001e-21 2.458235e-20 9.057352e-14) (-1.418962e-21 2.363678e-20 6.152947e-09) (0.000000e+00 0.000000e+00 0.000000e+00))
0.16          	((1.848459e-01 6.652972e-09 1.412099e-21) (1.821599e-01 5.893885e-09 5.654685e-22) (0.000000e+00 0.000000e+00 0.000000e+00)) ((6.587421e-21 2.427131e-20 1.274879e-13) (-1.400273e-21 2.330932e-20 6.815005e-09) (0.000000e+00 0.000000e+00 0.000000e+00))
0.165         	((1.826248e-01 6.818506e-09 1.373846e-21) (1.797343e-01 6.296868e-09 5.743460e-22) (0.000000e+00 0.000000e+00 0.000000e+00)) ((6.502279e-21 2.397641e-20 1.254435e-13) (-1.382511e-21 2.299833e-20 7.280321e-09) (0.000000e+00 0.000000e+00 0.000000e+00))
0.17          	((1.805170e-01 7.080291e-09 1.337441e-21) (1.774268e-01 6.622215e-09 5.829502e-22) (0.000000e+00 0.000000e+00 0.000000e+00)) ((6.421439e-21 2.369647e-20 1.298369e-13) (-1.365603e-21 2.270246e-20 7.593644e-09) (0.000000e+00 0.000000e+00 0.000000e+00))
0.175         	((1.785119e-01 7.744900e-09 1.302813e-21) (1.752282e-01 6.861206e-09 5.912590e-22) (0.000000e+00 0.000000e+00 0.000000e+00)) ((6.343997e-21 2.343018e-20 1.223324e-13) (-1.349508e-21 2.242049e-20 7.789506e-09) (0.000000e+00 0.000000e+00 0.000000e+00))
0.18          	((1.766060e-01 7.816605e-09 1.270105e-21) (1.731304e-01 7.040944e-09 5.992998e-22) (0.000000e+00 0.000000e+00 0.000000e+00)) ((6.270631e-21 2.317698e-20 1.184200e-13) (-1.334211e-21 2.215146e-20 7.894284e-09) (0.000000e+00 0.000000e+00 0.000000e+00))
0.185         	((1.747871e-01 8.006017e-09 1.238802e-21) (1.711259e-01 7.162765e-09 6.070721e-22) (0.000000e+00 0.000000e+00 0.000000e+00)) ((6.200096e-21 2.293532e-20 1.252681e-13) (-1.319606e-21 2.189435e-20 7.929657e-09) (0.000000e+00 0.000000e+00 0.000000e+00))
0.19          	((1.730515e-01 7.912025e-09 1.208975e-21) (1.692080e-01 7.241753e-09 6.146036e-22) (0.000000e+00 0.000000e+00 0.000000e+00)) ((6.132717e-21 2.270467e-20 1.312950e-13) (-1.305672e-21 2.164832e-20 7.910787e-09) (0.000000e+00 0.000000e+00 0.000000e+00))
0.195         	((1.713937e-01 8.036018e-09 1.180504e-21) (1.673707e-01 7.276102e-09 6.219312e-22) (0.000000e+00 0.000000e+00 0.000000e+00)) ((6.068462e-21 2.248425e-20 1.111885e-13) (-1.292336e-21 2.141262e-20 7.850406e-09) (0.000000e+00 0.000000e+00 0.000000e+00))
0.2           	((1.698068e-01 8.092956e-09 1.153120e-21) (1.656085e-01 7.288019e-09 6.290593e-22) (0.000000e+00 0.000000e+00 0.000000e+00)) ((6.006738e-21 2.227321e-20 1.078875e-13) (-1.279549e-21 2.118653e-20 7.758406e-09) (0.000000e+00 0.000000e+00 0.000000e+00))
0.205         	((1.682898e-01 8.109224e-09 1.127376e-21) (1.639166e-01 7.277367e-09 6.359924e-22) (0.000000e+00 0.000000e+00 0.000000e+00)) ((5.947926e-21 2.207144e-20 1.103449e-13) (-1.267266e-21 2.096946e-20 7.642461e-09) (0.000000e+00 0.000000e+00 0.000000e+00))
0.21          	((1.668336e-01 7.985644e-09 1.102365e-21) (1.622903e-01 7.249281e-09 6.427388e-22) (0.000000e+00 0.000000e+00 0.000000e+00)) ((5.891133e-21 2.187768e-20 1.186616e-13) (-1.255438e-21 2.076080e-20 7.508885e-09) (0.000000e+00 0.000000e+00 0.000000e+00))
0.215         	((1.654359e-01 7.958289e-09 1.078306e-21) (1.607257e-01 7.205242e-09 6.493105e-22) (0.000000e+00 0.000000e+00 0.000000e+00)) ((5.836530e-21 2.169165e-20 1.157909e-13) (-1.244063e-21 2.056004e-20 7.362200e-09) (0.000000e+00 0.000000e+00 0.000000e+00))
0.22          	((1.640949e-01 8.281610e-09 1.055562e-21) (1.592190e-01 7.155574e-09 6.557129e-22) (0.000000e+00 0.000000e+00 0.000000e+00)) ((5.784206e-21 2.151313e-20 1.166674e-13) (-1.233124e-21 2.036670e-20 7.206213e-09) (0.000000e+00 0.000000e+00 0.000000e+00))
0.225         	((1.628040e-01 8.186589e-09 1.033441e-21) (1.577669e-01 7.079041e-09 6.619413e-22) (0.000000e+00 0.000000e+00 0.000000e+00)) ((5.733416e-21 2.134131e-20 1.144312e-13) (-1.222576e-21 2.018033e-20 7.043795e-09) (0.000000e+00 0.000000e+00 0.000000e+00))
0.23          	((1.615640e-01 7.979160e-09 1.012349e-21) (1.563662e-01 6.998426e-09 6.680134e-22) (0.000000e+00 0.000000e+00 0.000000e+00)) ((5.684935e-21 2.117618e-20 1.087777e-13) (-1.212451e-21 2.000059e-20 6.877348e-09) (0.000000e+00 0.000000e+00 0.000000e+00))
0.235         	((1.603682e-01 8.077656e-09 9.918201e-22) (1.550140e-01 6.916234e-09 6.739339e-22) (0.000000e+00 0.000000e+00 0.000000e+00)) ((5.637832e-21 2.101694e-20 1.181717e-13) (-1.202651e-21 1.982705e-20 6.709265e-09) (0.000000e+00 0.000000e+00 0.000000e+00))
0.24          	((1.592156e-01 7.991931e-09 9.721430e-22) (1.537078e-01 6.824022e-09 6.796946e-22) (0.000000e+00 0.000000e+00 0.000000e+00)) ((5.592233e-21 2.086349e-20 1.121032e-13) (-1.193215e-21 1.965938e-20 6.540334e-09) (0.000000e+00 0.000000e+00 0.000000e+00))
0.245         	((1.581054e-01 7.857535e-09 9.531921e-22) (1.524449e-01 6.737614e-09 6.853231e-22) (0.000000e+00 0.000000e+00 0.000000e+00)) ((5.548543e-21 2.071556e-20 1.093140e-13) (-1.184128e-21 1.949727e-20 6.371887e-09) (0.000000e+00 0.000000e+00 0.000000e+00))
0.25          	((1.570341e-01 7.913384e-09 9.350465e-22) (1.512230e-01 6.648280e-09 6.908176e-22) (0.000000e+00 0.000000e+00 0.000000e+00)) ((5.506260e-21 2.057278e-20 1.105741e-13) (-1.175331e-21 1.934042e-20 6.204999e-09) (0.000000e+00 0.000000e+00 0.000000e+00))
0.255         	((1.559986e-01 7.671815e-09 9.171696e-22) (1.500401e-01 6.552005e-09 6.961943e-22) (0.000000e+00 0.000000e+00 0.000000e+00)) ((5.465205e-21 2.043475e-20 1.099439e-13) (-1.166808e-21 1.918855e-20 6.040164e-09) (0.000000e+00 0.000000e+00 0.000000e+00))
0.26          	((1.550007e-01 7.588084e-09 9.003923e-22) (1.488941e-01 6.457073e-09 7.014451e-22) (0.000000e+00 0.000000e+00 0.000000e+00)) ((5.425885e-21 2.030170e-20 1.134465e-13) (-1.158574e-21 1.904143e-20 5.877853e-09) (0.000000e+00 0.000000e+00 0.000000e+00))
0.265         	((1.540340e-01 7.587235e-09 8.839092e-22) (1.477833e-01 6.357942e-09 7.065781e-22) (0.000000e+00 0.000000e+00 0.000000e+00)) ((5.387484e-21 2.017276e-20 1.054551e-13) (-1.150561e-21 1.889882e-20 5.718826e-09) (0.000000e+00 0.000000e+00 0.000000e+00))
0.27          	((1.530990e-01 7.590700e-09 8.679796e-22) (1.467059e-01 6.262589e-09 7.115982e-22) (0.000000e+00 0.000000e+00 0.000000e+00)) ((5.350311e-21 2.004803e-20 1.202236e-13) (-1.142796e-21 1.876049e-20 5.563043e-09) (0.000000e+00 0.000000e+00 0.000000e+00))
0.275         	((1.521940e-01 7.502258e-09 8.525701e-22) (1.456604e-01 6.167495e-09 7.165089e-22) (0.000000e+00 0.000000e+00 0.000000e+00)) ((5.314282e-21 1.992728e-20 1.118059e-13) (-1.135261e-21 1.862624e-20 5.410757e-09) (0.000000e+00 0.000000e+00 0.000000e+00))
0.28          	((1.513171e-01 7.495841e-09 8.375727e-22) (1.446452e-01 6.075712e-09 7.213144e-22) (0.000000e+00 0.000000e+00 0.000000e+00)) ((5.279283e-21 1.981025e-20 1.094238e-13) (-1.127936e-21 1.849588e-20 5.262140e-09) (0.000000e+00 0.000000e+00 0.000000e+00))
0.285         	((1.504679e-01 -4.071640e-09 8.233373e-22) (1.436589e-01 6.668695e-09 7.260100e-22) (0.000000e+00 0.000000e+00 0.000000e+00)) ((5.245461e-21 1.969688e-20 1.221989e-13) (-1.120817e-21 1.836923e-20 6.052715e-09) (0.000000e+00 0.000000e+00 0.000000e+00))
0.29          	((1.496461e-01 -1.386136e-09 8.093593e-22) (1.427003e-01 7.635409e-09 7.306180e-22) (0.000000e+00 0.000000e+00 0.000000e+00)) ((5.212921e-21 1.958711e-20 9.836233e-14) (-1.113939e-21 1.824613e-20 6.652512e-09) (0.000000e+00 0.000000e+00 0.000000e+00))
0.295         	((1.488467e-01 -3.114020e-10 7.957659e-22) (1.417682e-01 8.526974e-09 7.351253e-22) (0.000000e+00 0.000000e+00 0.000000e+00)) ((5.180486e-21 1.948040e-20 7.976376e-14) (-1.107208e-21 1.812645e-20 7.103205e-09) (0.000000e+00 0.000000e+00 0.000000e+00))
0.3           	((1.480721e-01 8.209674e-10 7.826169e-22) (1.408615e-01 9.321537e-09 7.395400e-22) (0.000000e+00 0.000000e+00 0.000000e+00)) ((5.149320e-21 1.937694e-20 6.368268e-14) (-1.100707e-21 1.801000e-20 7.436131e-09) (0.000000e+00 0.000000e+00 0.000000e+00))
0.305         	((1.473200e-01 1.872243e-09 7.698616e-22) (1.399790e-01 9.997687e-09 7.438653e-22) (0.000000e+00 0.000000e+00 0.000000e+00)) ((5.119003e-21 1.927648e-20 5.620944e-14) (-1.094384e-21 1.789666e-20 7.676562e-09) (0.000000e+00 0.000000e+00 0.000000e+00))
0.31          	((1.465892e-01 2.580768e-09 7.574641e-22) (1.391197e-01 1.056004e-08 7.481040e-22) (0.000000e+00 0.000000e+00 0.000000e+00)) ((5.089294e-21 1.917888e-20 4.393860e-14) (-1.088247e-21 1.778631e-20 7.843786e-09) (0.000000e+00 0.000000e+00 0.000000e+00))
0.315         	((1.458793e-01 3.283239e-09 7.454556e-22) (1.382827e-01 1.101759e-08 7.522578e-22) (0.000000e+00 0.000000e+00 0.000000e+00)) ((5.060447e-21 1.908405e-20 3.221336e-14) (-1.082297e-21 1.767881e-20 7.952901e-09) (0.000000e+00 0.000000e+00 0.000000e+00))
0.32          	((1.451898e-01 3.834149e-09 7.339883e-22) (1.374671e-01 1.138350e-08 7.563239e-22) (0.000000e+00 0.000000e+00 0.000000e+00)) ((5.032544e-21 1.899189e-20 2.420688e-14) (-1.076500e-21 1.757404e-20 8.015774e-09) (0.000000e+00 0.000000e+00 0.000000e+00))
0.325         	((1.445181e-01 4.205854e-09 7.221545e-22) (1.366719e-01 1.167017e-08 7.603305e-22) (0.000000e+00 0.000000e+00 0.000000e+00)) ((5.005184e-21 1.890207e-20 1.383502e-14) (-1.070816e-21 1.747190e-20 8.041763e-09) (0.000000e+00 0.000000e+00 0.000000e+00))
0.33          	((1.438673e-01 4.599681e-09 7.113221e-22) (1.358963e-01 1.189130e-08 7.642484e-22) (0.000000e+00 0.000000e+00 0.000000e+00)) ((4.978949e-21 1.881506e-20 7.741939e-15) (-1.065329e-21 1.737228e-20 8.038275e-09) (0.000000e+00 0.000000e+00 0.000000e+00))
0.335         	((1.432322e-01 4.840278e-09 7.005496e-22) (1.351397e-01 1.205643e-08 7.680935e-22) (0.000000e+00 0.000000e+00 0.000000e+00)) ((4.953062e-21 1.873010e-20 -9.066603e-15) (-1.059932e-21 1.727509e-20 8.011365e-09) (0.000000e+00 0.000000e+00 0.000000e+00))
0.34          	((1.426140e-01 5.111735e-09 6.900900e-22) (1.344013e-01 1.217215e-08 7.718664e-22) (0.000000e+00 0.000000e+00 0.000000e+00)) ((4.927848e-21 1.864740e-20 -1.144070e-14) (-1.054668e-21 1.718023e-20 7.965513e-09) (0.000000e+00 0.000000e+00 0.000000e+00))
0.345         	((1.420122e-01 5.437099e-09 6.798934e-22) (1.336804e-01 1.225142e-08 7.755699e-22) (0.000000e+00 0.000000e+00 0.000000e+00)) ((4.903267e-21 1.856687e-20 -1.443182e-14) (-1.049529e-21 1.708762e-20 7.904479e-09) (0.000000e+00 0.000000e+00 0.000000e+00))
0.35          	((1.414259e-01 5.628100e-09 6.699708e-22) (1.329763e-01 1.229645e-08 7.792051e-22) (0.000000e+00 0.000000e+00 0.000000e+00)) ((4.879285e-21 1.848840e-20 -1.929048e-14) (-1.044511e-21 1.699716e-20 7.831335e-09) (0.000000e+00 0.000000e+00 0.000000e+00))
0.355         	((1.408545e-01 5.727416e-09 6.602799e-22) (1.322884e-01 1.231339e-08 7.827744e-22) (0.000000e+00 0.000000e+00 0.000000e+00)) ((4.855856e-21 1.841190e-20 -2.499551e-14) (-1.039605e-21 1.690879e-20 7.748593e-09) (0.000000e+00 0.000000e+00 0.000000e+00))
0.36          	((1.402969e-01 -3.362321e-09 6.508496e-22) (1.316165e-01 1.269699e-08 7.862804e-22) (0.000000e+00 0.000000e+00 0.000000e+00)) ((4.833012e-21 1.833724e-20 -3.829612e-14) (-1.034813e-21 1.682246e-20 9.005661e-09) (0.000000e+00 0.000000e+00 0.000000e+00))
0.365         	((1.397542e-01 -1.129455e-09 6.416992e-22) (1.309596e-01 1.334478e-08 7.897211e-22) (0.000000e+00 0.000000e+00 0.000000e+00)) ((4.810720e-21 1.826456e-20 -8.569912e-15) (-1.030130e-21 1.673806e-20 1.001419e-08) (0.000000e+00 0.000000e+00 0.000000e+00))
0.37          	((1.392245e-01 -3.158003e-10 6.327300e-22) (1.303173e-01 1.393080e-08 7.931009e-22) (0.000000e+00 0.000000e+00 0.000000e+00)) ((4.788903e-21 1.819361e-20 1.455789e-14) (-1.025544e-21 1.665553e-20 1.082089e-08) (0.000000e+00 0.000000e+00 0.000000e+00))
0.375         	((1.387088e-01 5.899478e-10 6.240460e-22) (1.296890e-01 1.445099e-08 7.964228e-22) (0.000000e+00 0.000000e+00 0.000000e+00)) ((4.767840e-21 1.812450e-20 3.454368e-14) (-1.021097e-21 1.657480e-20 1.146333e-08) (0.000000e+00 0.000000e+00 0.000000e+00))
0.38          	((1.382040e-01 1.391964e-09 6.153848e-22) (1.290743e-01 1.488875e-08 7.996890e-22) (0.000000e+00 0.000000e+00 0.000000e+00)) ((4.746917e-21 1.805684e-20 4.800157e-14) (-1.016685e-21 1.649580e-20 1.197214e-08) (0.000000e+00 0.000000e+00 0.000000e+00))
0.385         	((1.377125e-01 2.037712e-09 6.072190e-22) (1.284727e-01 1.524616e-08 8.028922e-22) (0.000000e+00 0.000000e+00 0.000000e+00)) ((4.726703e-21 1.799096e-20 6.088367e-14) (-1.012388e-21 1.641849e-20 1.237026e-08) (0.000000e+00 0.000000e+00 0.000000e+00))
0.39          	((1.372319e-01 2.598861e-09 5.990764e-22) (1.278838e-01 1.553414e-08 8.060422e-22) (0.000000e+00 0.000000e+00 0.000000e+00)) ((4.706911e-21 1.792651e-20 7.107466e-14) (-1.008162e-21 1.634281e-20 1.267720e-08) (0.000000e+00 0.000000e+00 0.000000e+00))
0.395         	((1.367621e-01 3.203890e-09 5.911176e-22) (1.273072e-01 1.574637e-08 8.091421e-22) (0.000000e+00 0.000000e+00 0.000000e+00)) ((4.687232e-21 1.786352e-20 6.600978e-14) (-1.004044e-21 1.626871e-20 1.290853e-08) (0.000000e+00 0.000000e+00 0.000000e+00))
0.4           	((1.363032e-01 3.475873e-09 5.832002e-22) (1.267425e-01 1.590476e-08 8.121963e-22) (0.000000e+00 0.000000e+00 0.000000e+00)) ((4.668072e-21 1.780199e-20 7.999095e-14) (-1.000033e-21 1.619615e-20 1.307679e-08) (0.000000e+00 0.000000e+00 0.000000e+00))
0.405         	((1.358552e-01 3.870577e-09 5.758735e-22) (1.261893e-01 1.601919e-08 8.151865e-22) (0.000000e+00 0.000000e+00 0.000000e+00)) ((4.649369e-21 1.774189e-20 8.256193e-14) (-9.961117e-22 1.612506e-20 1.319244e-08) (0.000000e+00 0.000000e+00 0.000000e+00))
0.41          	((1.354170e-01 4.158881e-09 5.684623e-22) (1.256473e-01 1.609204e-08 8.181344e-22) (0.000000e+00 0.000000e+00 0.000000e+00)) ((4.631030e-21 1.768310e-20 8.842891e-14) (-9.922665e-22 1.605541e-20 1.326408e-08) (0.000000e+00 0.000000e+00 0.000000e+00))
0.415         	((1.349883e-01 4.442680e-09 5.611929e-22) (1.251160e-01 1.611855e-08 8.210347e-22) (0.000000e+00 0.000000e+00 0.000000e+00)) ((4.612976e-21 1.762557e-20 1.019901e-13) (-9.884920e-22 1.598714e-20 1.329868e-08) (0.000000e+00 0.000000e+00 0.000000e+00))
0.42          	((1.345688e-01 4.357469e-09 5.540982e-22) (1.245953e-01 1.612038e-08 8.238913e-22) (0.000000e+00 0.000000e+00 0.000000e+00)) ((4.595042e-21 1.756929e-20 1.125296e-13) (-9.848264e-22 1.592024e-20 1.330202e-08) (0.000000e+00 0.000000e+00 0.000000e+00))
0.425         	((1.341604e-01 4.927693e-09 5.473199e-22) (1.240848e-01 1.611126e-08 8.266988e-22) (0.000000e+00 0.000000e+00 0.000000e+00)) ((4.578037e-21 1.751447e-20 1.016278e-13) (-9.812940e-22 1.585465e-20 1.327908e-08) (0.000000e+00 0.000000e+00 0.000000e+00))
0.43          	((1.337592e-01 5.003117e-09 5.405227e-22) (1.235841e-01 1.607842e-08 8.294622e-22) (0.000000e+00 0.000000e+00 0.000000e+00)) ((4.561084e-21 1.746061e-20 1.079310e-13) (-9.777750e-22 1.579031e-20 1.323439e-08) (0.000000e+00 0.000000e+00 0.000000e+00))
0.435         	((1.333669e-01 5.134755e-09 5.339000e-22) (1.230930e-01 1.602614e-08 8.321803e-22) (0.000000e+00 0.000000e+00 0.000000e+00)) ((4.544502e-21 1.740791e-20 1.081908e-13) (-9.743197e-22 1.572719e-20 1.317095e-08) (0.000000e+00 0.000000e+00 0.000000e+00))
0.44          	((1.329829e-01 5.221357e-09 5.274259e-22) (1.226111e-01 1.595236e-08 8.348546e-22) (0.000000e+00 0.000000e+00 0.000000e+00)) ((4.528258e-21 1.735633e-20 1.004826e-13) (-9.709266e-22 1.566526e-20 1.309176e-08) (0.000000e+00 0.000000e+00 0.000000e+00))
0.445         	((1.326071e-01 5.336192e-09 5.210970e-22) (1.221382e-01 1.586800e-08 8.374861e-22) (0.000000e+00 0.000000e+00 0.000000e+00)) ((4.512332e-21 1.730583e-20 1.011106e-13) (-9.675942e-22 1.560448e-20 1.299933e-08) (0.000000e+00 0.000000e+00 0.000000e+00))
0.45          	((1.322390e-01 5.391271e-09 5.149017e-22) (1.216740e-01 1.577606e-08 8.400759e-22) (0.000000e+00 0.000000e+00 0.000000e+00)) ((4.496711e-21 1.725636e-20 1.035137e-13) (-9.643214e-22 1.554483e-20 1.289576e-08) (0.000000e+00 0.000000e+00 0.000000e+00))
0.455         	((1.318785e-01 5.484946e-09 5.088263e-22) (1.212184e-01 1.567492e-08 8.426253e-22) (0.000000e+00 0.000000e+00 0.000000e+00)) ((4.481380e-21 1.720789e-20 1.027907e-13) (-9.611061e-22 1.548627e-20 1.278293e-08) (0.000000e+00 0.000000e+00 0.000000e+00))
0.46          	((1.315248e-01 5.548292e-09 5.028059e-22) (1.207710e-01 1.556492e-08 8.451363e-22) (0.000000e+00 0.000000e+00 0.000000e+00)) ((4.466262e-21 1.716033e-20 1.021255e-13) (-9.579373e-22 1.542877e-20 1.266233e-08) (0.000000e+00 0.000000e+00 0.000000e+00))
0.465         	((1.311799e-01 5.604307e-09 4.971621e-22) (1.203316e-01 1.544863e-08 8.476039e-22) (0.000000e+00 0.000000e+00 0.000000e+00)) ((4.451670e-21 1.711396e-20 1.006158e-13) (-9.548588e-22 1.537230e-20 1.253528e-08) (0.000000e+00 0.000000e+00 0.000000e+00))
0.47          	((1.308407e-01 5.659448e-09 4.914395e-22) (1.199001e-01 1.532712e-08 8.500365e-22) (0.000000e+00 0.000000e+00 0.000000e+00)) ((4.437165e-21 1.706832e-20 1.012414e-13) (-9.518109e-22 1.531683e-20 1.240300e-08) (0.000000e+00 0.000000e+00 0.000000e+00))
0.475         	((1.305084e-01 5.536050e-09 4.858834e-22) (1.194762e-01 1.519849e-08 8.524304e-22) (0.000000e+00 0.000000e+00 0.000000e+00)) ((4.422936e-21 1.702361e-20 1.073873e-13) (-9.488178e-22 1.526234e-20 1.226645e-08) (0.000000e+00 0.000000e+00 0.000000e+00))
0.48          	((1.301828e-01 5.620022e-09 4.805458e-22) (1.190596e-01 1.506563e-08 8.547845e-22) (0.000000e+00 0.000000e+00 0.000000e+00)) ((4.408984e-21 1.697979e-20 1.050316e-13) (-9.458794e-22 1.520881e-20 1.212645e-08) (0.000000e+00 0.000000e+00 0.000000e+00))
0.485         	((1.298629e-01 5.809820e-09 4.748846e-22) (1.186503e-01 1.493497e-08 8.571160e-22) (0.000000e+00 0.000000e+00 0.000000e+00)) ((4.395216e-21 1.693672e-20 1.038198e-13) (-9.429841e-22 1.515619e-20 1.198377e-08) (0.000000e+00 0.000000e+00 0.000000e+00))
0.49          	((1.295493e-01 5.735546e-09 4.696402e-22) (1.182479e-01 1.480134e-08 8.594038e-22) (0.000000e+00 0.000000e+00 0.000000e+00)) ((4.381666e-21 1.689451e-20 1.033429e-13) (-9.401385e-22 1.510449e-20 1.183896e-08) (0.000000e+00 0.000000e+00 0.000000e+00))
0.495         	((1.292431e-01 5.783257e-09 4.647495e-22) (1.178524e-01 1.466418e-08 8.616492e-22) (0.000000e+00 0.000000e+00 0.000000e+00)) ((4.368642e-21 1.685327e-20 1.031180e-13) (-9.373734e-22 1.505364e-20 1.169253e-08) (0.000000e+00 0.000000e+00 0.000000e+00))
0.5           	((1.289414e-01 5.728893e-09 4.594392e-22) (1.174636e-01 1.452526e-08 8.638775e-22) (0.000000e+00 0.000000e+00 0.000000e+00)) ((4.355569e-21 1.681263e-20 1.005904e-13) (-9.346141e-22 1.500366e-20 1.154560e-08) (0.000000e+00 0.000000e+00 0.000000e+00))
0.505         	((1.286457e-01 5.811147e-09 4.544905e-22) (1.170812e-01 1.438956e-08 8.660643e-22) (0.000000e+00 0.000000e+00 0.000000e+00)) ((4.342770e-21 1.677278e-20 1.043334e-13) (-9.319091e-22 1.495451e-20 1.139794e-08) (0.000000e+00 0.000000e+00 0.000000e+00))
0.51          	((1.283555e-01 5.827072e-09 4.496565e-22) (1.167052e-01 1.425179e-08 8.682177e-22) (0.000000e+00 0.000000e+00 0.000000e+00)) ((4.330196e-21 1.673368e-20 1.029716e-13) (-9.292506e-22 1.490617e-20 1.125002e-08) (0.000000e+00 0.000000e+00 0.000000e+00))
0.515         	((1.280707e-01 5.379945e-09 4.448966e-22) (1.163353e-01 1.411233e-08 8.703397e-22) (0.000000e+00 0.000000e+00 0.000000e+00)) ((4.317835e-21 1.669528e-20 7.738895e-14) (-9.266357e-22 1.485863e-20 1.110220e-08) (0.000000e+00 0.000000e+00 0.000000e+00))
0.52          	((1.277912e-01 4.554146e-09 4.402380e-22) (1.159714e-01 1.396407e-08 8.724300e-22) (0.000000e+00 0.000000e+00 0.000000e+00)) ((4.305686e-21 1.665759e-20 6.794206e-14) (-9.240637e-22 1.481185e-20 1.095476e-08) (0.000000e+00 0.000000e+00 0.000000e+00))
0.525         	((1.275167e-01 4.319448e-09 4.356462e-22) (1.156134e-01 1.381121e-08 8.744901e-22) (0.000000e+00 0.000000e+00 0.000000e+00)) ((4.293737e-21 1.662058e-20 1.178198e-13) (-9.215325e-22 1.476583e-20 1.080793e-08) (0.000000e+00 0.000000e+00 0.000000e+00))
0.53          	((1.272472e-01 4.829540e-09 4.311533e-22) (1.152611e-01 1.366906e-08 8.765193e-22) (0.000000e+00 0.000000e+00 0.000000e+00)) ((4.281987e-21 1.658423e-20 9.574063e-14) (-9.190410e-22 1.472055e-20 1.066191e-08) (0.000000e+00 0.000000e+00 0.000000e+00))
0.535         	((1.269826e-01 4.445987e-09 4.267417e-22) (1.149143e-01 1.353449e-08 8.785186e-22) (0.000000e+00 0.000000e+00 0.000000e+00)) ((4.270427e-21 1.654852e-20 7.265190e-14) (-9.165878e-22 1.467597e-20 1.051686e-08) (0.000000e+00 0.000000e+00 0.000000e+00))
0.54          	((1.267227e-01 4.733870e-09 4.224089e-22) (1.145730e-01 1.340092e-08 8.804882e-22) (0.000000e+00 0.000000e+00 0.000000e+00)) ((4.259054e-21 1.651344e-20 8.183075e-14) (-9.141709e-22 1.463210e-20 1.037303e-08) (0.000000e+00 0.000000e+00 0.000000e+00))
0.545         	((1.264673e-01 4.636308e-09 4.181505e-22) (1.142370e-01 1.327150e-08 8.824284e-22) (0.000000e+00 0.000000e+00 0.000000e+00)) ((4.247856e-21 1.647897e-20 8.261381e-14) (-9.117870e-22 1.458891e-20 1.023047e-08) (0.000000e+00 0.000000e+00 0.000000e+00))
0.55          	((1.262159e-01 4.468928e-09 4.139235e-22) (1.139062e-01 1.313723e-08 8.843395e-22) (0.000000e+00 0.000000e+00 0.000000e+00)) ((4.236747e-21 1.644502e-20 9.769000e-14) (-9.094133e-22 1.454639e-20 1.008936e-08) (0.000000e+00 0.000000e+00 0.000000e+00))
0.555         	((1.259705e-01 4.383928e-09 4.099207e-22) (1.135805e-01 1.298637e-08 8.862196e-22) (0.000000e+00 0.000000e+00 0.000000e+00)) ((4.226110e-21 1.641189e-20 8.598144e-14) (-9.071344e-22 1.450451e-20 9.949624e-09) (0.000000e+00 0.000000e+00 0.000000e+00))