/*--------------------------------*- C++ -*----------------------------------*\
  =========                 |
  \\      /  F ield         | OpenFOAM: The Open Source CFD Toolbox
   \\    /   O peration     | Website:  https://openfoam.org
    \\  /    A nd           | Version:  7
     \\/     M anipulation  |
\*---------------------------------------------------------------------------*/
FoamFile
{
    version     2.0;
    format      ascii;
    class       volVectorField;
    location    "20";
    object      U;
}
// * * * * * * * * * * * * * * * * * * * * * * * * * * * * * * * * * * * * * //

dimensions      [0 1 -1 0 0 0 0];

internalField   nonuniform List<vector> 
2625
(
(1.26409 -0.000164491 -5.34925e-23)
(1.26472 -0.000151484 1.00586e-21)
(1.26528 -0.000137993 1.58323e-22)
(1.26576 -0.000123879 6.61724e-22)
(1.26618 -0.000109051 3.62923e-22)
(1.26411 -0.000489211 -1.24417e-21)
(1.26473 -0.00045114 3.5605e-22)
(1.26529 -0.000411582 -1.39263e-21)
(1.26578 -0.000370103 -9.4602e-22)
(1.2662 -0.000326324 1.78581e-22)
(1.26414 -0.000809271 -1.17445e-21)
(1.26476 -0.000746744 -6.25652e-22)
(1.26532 -0.000681702 1.76785e-21)
(1.26581 -0.000613402 1.88097e-21)
(1.26623 -0.000541117 -1.3497e-21)
(1.26418 -0.00112559 -5.01672e-22)
(1.26481 -0.00103888 1.48209e-21)
(1.26537 -0.000948631 1.71319e-22)
(1.26585 -0.000853771 -5.16078e-21)
(1.26628 -0.000753235 -1.26569e-21)
(1.26424 -0.00143768 4.39182e-21)
(1.26487 -0.00132707 -2.12671e-22)
(1.26543 -0.00121189 2.78018e-21)
(1.26592 -0.00109073 6.66587e-21)
(1.26634 -0.000962219 1.04367e-21)
(1.26431 -0.00174508 1.42258e-21)
(1.26494 -0.00161085 2.56368e-22)
(1.2655 -0.00147101 -1.33025e-21)
(1.26599 -0.00132381 -2.84579e-21)
(1.26642 -0.00116759 -1.41845e-21)
(1.2644 -0.00204744 -4.39657e-21)
(1.26503 -0.00188985 -1.71683e-21)
(1.26559 -0.0017256 1.72385e-21)
(1.26608 -0.00155259 -1.66417e-21)
(1.26651 -0.0013689 5.79002e-21)
(1.2645 -0.00234447 -2.18027e-21)
(1.26513 -0.00216373 7.21978e-22)
(1.2657 -0.00197527 -1.02275e-20)
(1.26619 -0.00177663 1.21703e-21)
(1.26662 -0.00156569 -4.33669e-21)
(1.26462 -0.00263586 -4.14611e-21)
(1.26525 -0.00243215 7.92568e-22)
(1.26582 -0.00221965 1.27998e-20)
(1.26631 -0.00199552 -2.01807e-21)
(1.26674 -0.00175748 -2.50745e-21)
(1.26475 -0.00292131 1.81874e-21)
(1.26538 -0.00269478 -1.50606e-21)
(1.26595 -0.00245837 1.74566e-21)
(1.26644 -0.00220886 3.38582e-21)
(1.26688 -0.00194386 8.83969e-22)
(1.26489 -0.00320055 1.12759e-21)
(1.26553 -0.0029513 2.80148e-21)
(1.2661 -0.00269108 -1.08219e-20)
(1.26659 -0.00241626 -4.80873e-21)
(1.26703 -0.00212437 5.98341e-22)
(1.26504 -0.00347332 4.61051e-21)
(1.26568 -0.00320144 6.14981e-21)
(1.26625 -0.00291745 2.495e-21)
(1.26675 -0.00261734 -3.85904e-21)
(1.26719 -0.00229863 1.02778e-20)
(1.26521 -0.00373938 4.6605e-21)
(1.26585 -0.00344492 -2.90733e-21)
(1.26643 -0.00313718 6.25797e-21)
(1.26692 -0.00281177 4.96509e-21)
(1.26737 -0.00246624 -6.00871e-21)
(1.26539 -0.00399853 -8.81663e-21)
(1.26603 -0.00368148 -1.10841e-20)
(1.26661 -0.00334997 -3.65198e-21)
(1.26711 -0.00299923 8.74056e-21)
(1.26755 -0.00262683 -9.63896e-21)
(1.26558 -0.00425055 2.30519e-21)
(1.26623 -0.00391091 -4.21967e-21)
(1.2668 -0.00355557 -1.25955e-22)
(1.2673 -0.00317941 2.88647e-21)
(1.26775 -0.00278009 7.07157e-21)
(1.26578 -0.00449527 -7.48257e-21)
(1.26643 -0.00413299 1.32302e-20)
(1.267 -0.00375372 8.50691e-21)
(1.2675 -0.00335205 -6.73837e-21)
(1.26795 -0.00292569 4.62007e-21)
(1.26599 -0.00473253 1.08078e-20)
(1.26664 -0.00434753 -2.51991e-21)
(1.26722 -0.00394421 -1.65925e-20)
(1.26771 -0.0035169 -1.66258e-21)
(1.26817 -0.00306335 -1.68526e-21)
(1.26621 -0.00496218 2.33963e-22)
(1.26686 -0.00455436 1.83654e-23)
(1.26744 -0.00412684 -6.08901e-22)
(1.26793 -0.00367373 -8.07068e-21)
(1.26839 -0.0031928 -1.24133e-20)
(1.26643 -0.00518408 -8.91106e-22)
(1.26708 -0.00475334 4.52105e-21)
(1.26766 -0.00430143 -1.17621e-21)
(1.26816 -0.00382234 4.69612e-22)
(1.26861 -0.00331382 2.77524e-20)
(1.26667 -0.00539813 -1.36669e-21)
(1.26732 -0.00494431 3.75728e-21)
(1.2679 -0.0044678 1.36757e-20)
(1.26839 -0.00396255 -1.07997e-20)
(1.26884 -0.00342618 -3.49803e-20)
(1.26691 -0.00560421 -1.3844e-20)
(1.26756 -0.00512717 -1.02754e-20)
(1.26814 -0.00462581 1.08091e-20)
(1.26862 -0.0040942 1.26013e-20)
(1.26908 -0.00352968 6.62383e-21)
(1.26715 -0.00580223 1.16368e-20)
(1.2678 -0.0053018 -1.98787e-20)
(1.26838 -0.00477532 -4.75759e-21)
(1.26887 -0.00421714 -1.59613e-21)
(1.26931 -0.00362416 1.49572e-20)
(1.2674 -0.0059921 -7.36551e-21)
(1.26805 -0.0054681 2.9588e-20)
(1.26863 -0.00491623 -2.75307e-20)
(1.26911 -0.00433127 1.35794e-20)
(1.26955 -0.00370945 4.74942e-21)
(1.26766 -0.00617375 1.48585e-20)
(1.26831 -0.00562599 -1.14502e-20)
(1.26888 -0.00504841 1.79474e-22)
(1.26935 -0.00443645 -1.62373e-20)
(1.26979 -0.00378542 -1.96617e-20)
(1.26791 -0.0063471 -1.60703e-20)
(1.26856 -0.00577538 1.56446e-20)
(1.26913 -0.00517177 2.02299e-20)
(1.2696 -0.00453261 1.04814e-20)
(1.27003 -0.00385194 3.57951e-21)
(1.26818 -0.00651209 -7.28093e-21)
(1.26882 -0.00591622 2.96039e-21)
(1.26938 -0.00528623 6.83221e-21)
(1.26984 -0.00461967 1.77805e-20)
(1.27026 -0.0039089 5.18072e-21)
(1.26844 -0.00666866 1.81024e-20)
(1.26908 -0.00604843 1.43827e-21)
(1.26964 -0.00539171 8.93582e-21)
(1.27009 -0.00469756 -2.08536e-20)
(1.2705 -0.0039562 1.70689e-21)
(1.2687 -0.00681676 1.21935e-20)
(1.26934 -0.00617196 -2.91426e-20)
(1.26989 -0.00548814 -3.10518e-20)
(1.27033 -0.00476623 1.22664e-20)
(1.27073 -0.00399375 2.09153e-21)
(1.26897 -0.00695633 -2.59897e-20)
(1.2696 -0.00628676 7.56683e-22)
(1.27014 -0.00557547 -2.38472e-21)
(1.27057 -0.00482563 -1.37699e-20)
(1.27095 -0.00402148 8.0219e-21)
(1.26923 -0.00708733 2.80711e-21)
(1.26986 -0.00639277 2.09025e-20)
(1.27039 -0.00565365 -1.48727e-21)
(1.27081 -0.00487574 -2.71717e-21)
(1.27116 -0.00403933 -4.13214e-23)
(1.2695 -0.00720971 -5.13281e-21)
(1.27011 -0.00648994 -7.66622e-21)
(1.27063 -0.00572263 1.56651e-20)
(1.27104 -0.00491653 1.07817e-20)
(1.27137 -0.00404724 -8.94574e-21)
(1.26976 -0.00732343 2.40842e-20)
(1.27037 -0.00657823 -2.83363e-20)
(1.27087 -0.00578239 -5.39094e-21)
(1.27126 -0.00494798 -1.15032e-20)
(1.27157 -0.00404518 8.4587e-21)
(1.27002 -0.00742845 -2.645e-20)
(1.27062 -0.00665759 2.47122e-20)
(1.2711 -0.00583291 1.16979e-20)
(1.27148 -0.00497009 1.2398e-21)
(1.27176 -0.0040331 -2.26915e-20)
(1.27028 -0.00752473 2.93616e-20)
(1.27086 -0.00672797 7.7209e-21)
(1.27133 -0.00587419 2.77475e-21)
(1.27169 -0.00498285 1.27104e-20)
(1.27194 -0.00401098 1.45615e-20)
(1.27054 -0.00761222 -6.60368e-21)
(1.27111 -0.00678931 -3.20861e-20)
(1.27155 -0.00590622 3.59707e-21)
(1.27189 -0.00498624 1.67074e-20)
(1.27211 -0.00397882 -3.30394e-23)
(1.27079 -0.00769089 1.05831e-20)
(1.27134 -0.00684156 1.24178e-20)
(1.27176 -0.00592902 -2.7937e-20)
(1.27208 -0.00498028 -2.30765e-20)
(1.27226 -0.00393663 -2.62658e-20)
(1.27103 -0.00776069 -3.62916e-20)
(1.27157 -0.00688468 -2.70977e-21)
(1.27197 -0.00594262 2.53466e-20)
(1.27226 -0.00496494 5.88602e-21)
(1.2724 -0.00388443 8.86803e-21)
(1.27065 -0.0086829 4.24437e-20)
(1.27127 -0.00782158 3.67061e-20)
(1.27179 -0.0069186 3.38304e-21)
(1.27216 -0.00594706 -1.46814e-20)
(1.27243 -0.00494021 -1.46278e-20)
(1.27252 -0.00382226 3.09493e-20)
(1.2709 -0.00876077 -2.05201e-20)
(1.27151 -0.0078735 -9.64225e-21)
(1.27201 -0.00694326 2.58991e-20)
(1.27234 -0.00594239 -2.4795e-21)
(1.27259 -0.00490608 -4.10097e-21)
(1.27262 -0.00375022 -3.07777e-21)
(1.27115 -0.00882982 1.54673e-20)
(1.27174 -0.00791641 -7.7016e-21)
(1.27221 -0.00695862 -1.59239e-20)
(1.27251 -0.00592866 -3.07893e-21)
(1.27273 -0.00486253 1.45303e-20)
(1.27271 -0.00366842 1.45511e-20)
(1.2714 -0.00889 -2.12834e-20)
(1.27196 -0.00795024 -8.34582e-21)
(1.27241 -0.00696462 3.31314e-21)
(1.27267 -0.00590594 -1.47559e-20)
(1.27286 -0.00480953 1.14771e-20)
(1.27277 -0.00357703 -2.74844e-20)
(1.27164 -0.00894123 2.2243e-21)
(1.27218 -0.00797492 6.13541e-21)
(1.2726 -0.0069612 -1.79874e-20)
(1.27282 -0.00587429 -1.80681e-21)
(1.27297 -0.00474705 6.2707e-22)
(1.27282 -0.00347626 9.46029e-21)
(1.27187 -0.00898347 1.27547e-20)
(1.27238 -0.00799038 -1.64119e-20)
(1.27277 -0.00694833 2.53418e-20)
(1.27295 -0.00583376 3.16446e-20)
(1.27306 -0.0046751 1.16414e-20)
(1.27284 -0.00336639 2.90773e-20)
(1.2721 -0.00901663 -2.98248e-20)
(1.27258 -0.00799652 2.87973e-20)
(1.27294 -0.00692594 -2.17765e-20)
(1.27307 -0.00578441 -5.09154e-20)
(1.27314 -0.00459367 -5.0392e-20)
(1.27284 -0.0032478 9.31189e-21)
(1.27232 -0.00904066 3.48921e-20)
(1.27277 -0.00799325 -1.63172e-20)
(1.27309 -0.006894 5.87868e-20)
(1.27317 -0.00572624 1.32527e-20)
(1.2732 -0.00450281 3.38357e-20)
(1.27281 -0.00312091 -1.42954e-20)
(1.27253 -0.00905549 -4.31077e-20)
(1.27295 -0.00798047 -1.14564e-20)
(1.27323 -0.00685246 -4.98126e-20)
(1.27326 -0.00565927 4.93618e-20)
(1.27324 -0.00440261 2.25305e-20)
(1.27276 -0.00298625 1.53909e-20)
(1.27274 -0.00906103 7.43079e-20)
(1.27312 -0.00795806 5.27845e-20)
(1.27335 -0.00680128 -1.14027e-20)
(1.27333 -0.00558346 -2.09444e-20)
(1.27325 -0.00429324 1.04841e-20)
(1.27269 -0.00284444 -2.45741e-20)
(1.27294 -0.0090572 -1.96002e-20)
(1.27328 -0.00792591 -4.51966e-20)
(1.27346 -0.0067404 -1.93001e-20)
(1.27339 -0.00549872 1.15176e-20)
(1.27325 -0.00417495 -1.06503e-20)
(1.27259 -0.00269615 -8.12803e-21)
(1.27313 -0.00904391 -3.18824e-20)
(1.27343 -0.00788388 5.32092e-20)
(1.27356 -0.00666976 6.95912e-20)
(1.27342 -0.00540494 2.64357e-20)
(1.27321 -0.00404812 -4.66503e-20)
(1.27246 -0.00254214 -8.74059e-21)
(1.27331 -0.00902107 -2.56675e-20)
(1.27357 -0.00783184 -1.5842e-20)
(1.27364 -0.00658925 -4.72684e-20)
(1.27344 -0.00530193 -7.25836e-21)
(1.27315 -0.00391323 3.62316e-20)
(1.27348 -0.00898858 5.73338e-20)
(1.27369 -0.00776965 -6.52553e-21)
(1.2737 -0.00649877 3.96225e-20)
(1.27344 -0.00518948 -6.26441e-20)
(1.27306 -0.00377089 -6.51132e-20)
(1.27364 -0.00894633 -3.42228e-20)
(1.27381 -0.00769715 -1.03217e-20)
(1.27375 -0.00639815 -7.6489e-20)
(1.27341 -0.00506731 7.15717e-20)
(1.2738 -0.00889421 1.84708e-22)
(1.27391 -0.00761421 -2.40544e-20)
(1.27378 -0.00628719 3.23735e-20)
(1.27337 -0.00493509 -8.79185e-20)
(1.27394 -0.00883209 -3.18765e-20)
(1.27399 -0.00752064 4.95577e-21)
(1.2738 -0.00616562 3.08023e-20)
(1.27407 -0.00875984 -1.86284e-21)
(1.27407 -0.00741624 3.10268e-20)
(1.27379 -0.00603305 -1.54912e-20)
(1.27419 -0.00867744 6.00347e-20)
(1.27412 -0.00730087 1.44437e-20)
(1.27377 -0.00588907 -2.38632e-20)
(1.27431 -0.00858475 1.37749e-20)
(1.27417 -0.00717454 -2.56153e-20)
(1.2744 -0.00848101 7.45122e-21)
(1.2742 -0.00703687 -2.17604e-20)
(1.27449 -0.00836577 -1.79483e-20)
(1.27457 -0.00824349 -1.93599e-20)
(1.26653 -9.32512e-05 0)
(1.26681 -7.82761e-05 0)
(1.26705 -6.35529e-05 0)
(1.26724 -4.90725e-05 0)
(1.26738 -3.48945e-05 0)
(1.26748 -2.10429e-05 0)
(1.26753 -7.53449e-06 0)
(1.26753 5.61523e-06 0)
(1.26749 1.83925e-05 0)
(1.2674 3.07845e-05 0)
(1.26726 4.27791e-05 0)
(1.26707 5.43647e-05 0)
(1.26684 6.55305e-05 0)
(1.26656 7.62662e-05 0)
(1.26624 8.65626e-05 0)
(1.26587 9.64112e-05 0)
(1.26546 0.000105805 0)
(1.265 0.000114739 0)
(1.2645 0.000123208 0)
(1.26396 0.000131209 0)
(1.26338 0.000138742 0)
(1.26275 0.000145808 0)
(1.26209 0.000152409 0)
(1.26139 0.000158549 0)
(1.26065 0.000164234 0)
(1.25988 0.000169472 0)
(1.25907 0.000174272 0)
(1.25823 0.000178645 0)
(1.25736 0.000182603 0)
(1.25646 0.000186161 0)
(1.25553 0.000189332 0)
(1.25457 0.000192132 0)
(1.25358 0.000194579 0)
(1.25257 0.000196689 0)
(1.25153 0.000198481 0)
(1.25047 0.000199972 0)
(1.24938 0.000201182 0)
(1.24828 0.000202129 0)
(1.24716 0.000202832 0)
(1.24601 0.00020331 0)
(1.24485 0.000203581 0)
(1.24367 0.000203663 0)
(1.24248 0.000203574 0)
(1.24126 0.00020333 0)
(1.24004 0.00020295 0)
(1.2388 0.000202447 0)
(1.23754 0.000201839 0)
(1.23627 0.000201138 0)
(1.23499 0.000200361 0)
(1.26654 -0.000278713 0)
(1.26682 -0.000233816 0)
(1.26706 -0.000189755 0)
(1.26725 -0.000146452 0)
(1.2674 -0.000104063 0)
(1.26749 -6.26561e-05 0)
(1.26754 -2.22777e-05 0)
(1.26754 1.70269e-05 0)
(1.2675 5.52173e-05 0)
(1.26741 9.22557e-05 0)
(1.26727 0.000128106 0)
(1.26708 0.000162734 0)
(1.26685 0.000196107 0)
(1.26657 0.000228195 0)
(1.26624 0.00025897 0)
(1.26587 0.000288406 0)
(1.26546 0.000316483 0)
(1.265 0.000343184 0)
(1.2645 0.000368496 0)
(1.26396 0.000392411 0)
(1.26337 0.000414926 0)
(1.26275 0.000436044 0)
(1.26209 0.000455771 0)
(1.26138 0.00047412 0)
(1.26065 0.00049111 0)
(1.25987 0.000506763 0)
(1.25906 0.000521107 0)
(1.25822 0.000534174 0)
(1.25735 0.000546002 0)
(1.25644 0.000556631 0)
(1.25551 0.000566105 0)
(1.25455 0.000574471 0)
(1.25356 0.000581779 0)
(1.25254 0.000588082 0)
(1.2515 0.000593432 0)
(1.25044 0.000597885 0)
(1.24936 0.000601496 0)
(1.24825 0.000604323 0)
(1.24712 0.000606419 0)
(1.24598 0.000607843 0)
(1.24482 0.000608647 0)
(1.24364 0.000608888 0)
(1.24244 0.000608616 0)
(1.24123 0.000607884 0)
(1.24 0.000606741 0)
(1.23875 0.000605235 0)
(1.2375 0.000603411 0)
(1.23623 0.000601314 0)
(1.23494 0.000598985 0)
(1.26657 -0.000461907 0)
(1.26686 -0.000387218 0)
(1.26709 -0.000314028 0)
(1.26728 -0.000242158 0)
(1.26742 -0.000171834 0)
(1.26752 -0.000103153 0)
(1.26757 -3.61861e-05 0)
(1.26757 2.89949e-05 0)
(1.26752 9.23255e-05 0)
(1.26743 0.000153745 0)
(1.26728 0.000213193 0)
(1.2671 0.000270615 0)
(1.26686 0.000325955 0)
(1.26658 0.000379164 0)
(1.26625 0.000430196 0)
(1.26588 0.000479008 0)
(1.26546 0.000525567 0)
(1.265 0.000569843 0)
(1.2645 0.000611815 0)
(1.26395 0.00065147 0)
(1.26337 0.000688803 0)
(1.26274 0.000723817 0)
(1.26207 0.000756524 0)
(1.26137 0.000786946 0)
(1.26063 0.000815112 0)
(1.25985 0.00084106 0)
(1.25904 0.000864837 0)
(1.25819 0.000886496 0)
(1.25732 0.000906098 0)
(1.25641 0.000923711 0)
(1.25547 0.000939409 0)
(1.25451 0.000953268 0)
(1.25352 0.000965373 0)
(1.2525 0.00097581 0)
(1.25146 0.000984667 0)
(1.25039 0.000992036 0)
(1.2493 0.00099801 0)
(1.24819 0.00100268 0)
(1.24706 0.00100614 0)
(1.24592 0.00100849 0)
(1.24475 0.00100981 0)
(1.24357 0.00101019 0)
(1.24237 0.00100972 0)
(1.24115 0.0010085 0)
(1.23992 0.00100659 0)
(1.23867 0.00100407 0)
(1.23741 0.00100103 0)
(1.23614 0.000997542 0)
(1.23485 0.000993665 0)
(1.26662 -0.000642563 0)
(1.2669 -0.000538215 0)
(1.26714 -0.000436082 0)
(1.26732 -0.000335871 0)
(1.26746 -0.00023786 0)
(1.26756 -0.000142164 0)
(1.2676 -4.88708e-05 0)
(1.2676 4.19267e-05 0)
(1.26755 0.000130142 0)
(1.26745 0.000215693 0)
(1.26731 0.000298498 0)
(1.26712 0.00037848 0)
(1.26688 0.000455564 0)
(1.2666 0.000529678 0)
(1.26627 0.00060076 0)
(1.26589 0.000668752 0)
(1.26547 0.000733603 0)
(1.26501 0.000795274 0)
(1.2645 0.000853735 0)
(1.26395 0.000908967 0)
(1.26336 0.000960962 0)
(1.26273 0.00100973 0)
(1.26206 0.00105527 0)
(1.26135 0.00109764 0)
(1.2606 0.00113685 0)
(1.25982 0.00117298 0)
(1.25901 0.00120608 0)
(1.25816 0.00123623 0)
(1.25728 0.00126351 0)
(1.25636 0.00128802 0)
(1.25542 0.00130986 0)
(1.25445 0.00132914 0)
(1.25345 0.00134597 0)
(1.25243 0.00136048 0)
(1.25139 0.00137278 0)
(1.25032 0.00138302 0)
(1.24922 0.00139131 0)
(1.24811 0.00139778 0)
(1.24698 0.00140257 0)
(1.24582 0.00140581 0)
(1.24465 0.00140761 0)
(1.24346 0.00140812 0)
(1.24226 0.00140744 0)
(1.24104 0.0014057 0)
(1.2398 0.001403 0)
(1.23855 0.00139947 0)
(1.23729 0.00139521 0)
(1.23601 0.00139032 0)
(1.23472 0.00138489 0)
(1.26668 -0.000820291 0)
(1.26696 -0.000686454 0)
(1.26719 -0.000555569 0)
(1.26738 -0.000427236 0)
(1.26752 -0.000301774 0)
(1.26761 -0.000179307 0)
(1.26765 -5.99339e-05 0)
(1.26764 5.62346e-05 0)
(1.26759 0.000169094 0)
(1.26749 0.000278541 0)
(1.26734 0.000384476 0)
(1.26715 0.000486798 0)
(1.26691 0.000585414 0)
(1.26662 0.000680232 0)
(1.26628 0.000771171 0)
(1.2659 0.000858155 0)
(1.26548 0.000941122 0)
(1.26501 0.00102002 0)
(1.2645 0.00109481 0)
(1.26394 0.00116546 0)
(1.26335 0.00123197 0)
(1.26271 0.00129434 0)
(1.26203 0.0013526 0)
(1.26132 0.00140677 0)
(1.26057 0.00145692 0)
(1.25978 0.00150311 0)
(1.25896 0.00154543 0)
(1.25811 0.00158396 0)
(1.25722 0.00161882 0)
(1.2563 0.00165014 0)
(1.25535 0.00167803 0)
(1.25438 0.00170265 0)
(1.25337 0.00172413 0)
(1.25235 0.00174264 0)
(1.25129 0.00175834 0)
(1.25022 0.00177138 0)
(1.24912 0.00178193 0)
(1.248 0.00179017 0)
(1.24686 0.00179624 0)
(1.2457 0.00180033 0)
(1.24452 0.00180259 0)
(1.24333 0.00180318 0)
(1.24211 0.00180226 0)
(1.24089 0.00179998 0)
(1.23965 0.00179648 0)
(1.23839 0.00179191 0)
(1.23712 0.00178641 0)
(1.23583 0.0017801 0)
(1.23454 0.0017731 0)
(1.26676 -0.000994679 0)
(1.26704 -0.000831556 0)
(1.26726 -0.000672124 0)
(1.26745 -0.000515887 0)
(1.26758 -0.000363206 0)
(1.26767 -0.000214204 0)
(1.26771 -6.89891e-05 0)
(1.2677 7.23158e-05 0)
(1.26764 0.00020959 0)
(1.26753 0.000342711 0)
(1.26738 0.00047156 0)
(1.26718 0.000596016 0)
(1.26694 0.000715965 0)
(1.26664 0.000831297 0)
(1.2663 0.000941911 0)
(1.26592 0.00104771 0)
(1.26549 0.00114863 0)
(1.26501 0.00124459 0)
(1.26449 0.00133555 0)
(1.26393 0.00142148 0)
(1.26333 0.00150237 0)
(1.26269 0.00157821 0)
(1.26201 0.00164904 0)
(1.26128 0.00171491 0)
(1.26053 0.00177587 0)
(1.25973 0.00183201 0)
(1.2589 0.00188342 0)
(1.25804 0.00193024 0)
(1.25715 0.00197259 0)
(1.25622 0.00201061 0)
(1.25527 0.00204447 0)
(1.25428 0.00207434 0)
(1.25327 0.0021004 0)
(1.25224 0.00212284 0)
(1.25118 0.00214186 0)
(1.25009 0.00215764 0)
(1.24899 0.0021704 0)
(1.24786 0.00218033 0)
(1.24671 0.00218764 0)
(1.24554 0.00219253 0)
(1.24436 0.0021952 0)
(1.24316 0.00219584 0)
(1.24194 0.00219464 0)
(1.2407 0.00219179 0)
(1.23945 0.00218746 0)
(1.23819 0.00218183 0)
(1.23691 0.00217506 0)
(1.23562 0.00216731 0)
(1.23432 0.00215872 0)
(1.26685 -0.0011653 0)
(1.26712 -0.000973126 0)
(1.26735 -0.000785369 0)
(1.26753 -0.000601455 0)
(1.26766 -0.000421789 0)
(1.26774 -0.000246486 0)
(1.26777 -7.5659e-05 0)
(1.26776 9.05561e-05 0)
(1.2677 0.000252024 0)
(1.26759 0.000408608 0)
(1.26743 0.000560167 0)
(1.26722 0.000706563 0)
(1.26697 0.000847659 0)
(1.26667 0.000983326 0)
(1.26633 0.00111344 0)
(1.26593 0.0012379 0)
(1.2655 0.00135661 0)
(1.26501 0.00146949 0)
(1.26449 0.00157648 0)
(1.26392 0.00167754 0)
(1.26331 0.00177266 0)
(1.26266 0.00186185 0)
(1.26197 0.00194513 0)
(1.26124 0.00202256 0)
(1.26047 0.00209421 0)
(1.25967 0.00216018 0)
(1.25883 0.0022206 0)
(1.25796 0.00227559 0)
(1.25706 0.00232531 0)
(1.25613 0.00236995 0)
(1.25516 0.00240969 0)
(1.25417 0.00244472 0)
(1.25315 0.00247528 0)
(1.25211 0.00250157 0)
(1.25104 0.00252382 0)
(1.24994 0.00254228 0)
(1.24883 0.00255717 0)
(1.24769 0.00256875 0)
(1.24654 0.00257724 0)
(1.24536 0.00258288 0)
(1.24417 0.00258591 0)
(1.24295 0.00258655 0)
(1.24173 0.00258503 0)
(1.24048 0.00258157 0)
(1.23923 0.00257637 0)
(1.23795 0.00256964 0)
(1.23667 0.00256157 0)
(1.23537 0.00255235 0)
(1.23405 0.00254214 0)
(1.26696 -0.00133173 0)
(1.26723 -0.00111076 0)
(1.26745 -0.000894916 0)
(1.26762 -0.000683565 0)
(1.26774 -0.000477152 0)
(1.26782 -0.000275782 0)
(1.26785 -7.95718e-05 0)
(1.26783 0.000111333 0)
(1.26776 0.000296784 0)
(1.26765 0.000476628 0)
(1.26748 0.000650704 0)
(1.26727 0.000818855 0)
(1.26701 0.000980923 0)
(1.2667 0.00113676 0)
(1.26635 0.00128622 0)
(1.26595 0.00142918 0)
(1.2655 0.00156553 0)
(1.26502 0.00169518 0)
(1.26448 0.00181806 0)
(1.2639 0.00193412 0)
(1.26329 0.00204335 0)
(1.26263 0.00214575 0)
(1.26193 0.00224136 0)
(1.26119 0.00233023 0)
(1.26041 0.00241246 0)
(1.2596 0.00248815 0)
(1.25875 0.00255744 0)
(1.25787 0.0026205 0)
(1.25696 0.0026775 0)
(1.25601 0.00272865 0)
(1.25504 0.00277416 0)
(1.25404 0.00281427 0)
(1.25301 0.00284922 0)
(1.25195 0.00287927 0)
(1.25087 0.00290469 0)
(1.24977 0.00292574 0)
(1.24864 0.00294271 0)
(1.2475 0.00295585 0)
(1.24633 0.00296545 0)
(1.24515 0.00297178 0)
(1.24394 0.00297511 0)
(1.24272 0.00297571 0)
(1.24148 0.00297382 0)
(1.24023 0.0029697 0)
(1.23896 0.00296359 0)
(1.23768 0.00295572 0)
(1.23638 0.00294631 0)
(1.23507 0.00293557 0)
(1.23375 0.00292372 0)
(1.26708 -0.00149353 0)
(1.26734 -0.00124405 0)
(1.26756 -0.00100038 0)
(1.26772 -0.000761845 0)
(1.26784 -0.000528931 0)
(1.26791 -0.000301729 0)
(1.26793 -8.03612e-05 0)
(1.26791 0.000135018 0)
(1.26783 0.000344248 0)
(1.26771 0.000547157 0)
(1.26754 0.000743567 0)
(1.26732 0.000933299 0)
(1.26705 0.00111617 0)
(1.26674 0.00129202 0)
(1.26638 0.00146067 0)
(1.26597 0.00162199 0)
(1.26551 0.00177584 0)
(1.26501 0.00192213 0)
(1.26447 0.00206076 0)
(1.26388 0.0021917 0)
(1.26325 0.0023149 0)
(1.26258 0.00243039 0)
(1.26187 0.0025382 0)
(1.26113 0.00263839 0)
(1.26034 0.00273107 0)
(1.25952 0.00281636 0)
(1.25866 0.00289442 0)
(1.25777 0.00296543 0)
(1.25684 0.0030296 0)
(1.25588 0.00308715 0)
(1.2549 0.00313833 0)
(1.25389 0.00318341 0)
(1.25284 0.00322267 0)
(1.25178 0.0032564 0)
(1.25069 0.00328489 0)
(1.24957 0.00330845 0)
(1.24844 0.0033274 0)
(1.24728 0.00334204 0)
(1.2461 0.00335268 0)
(1.2449 0.00335964 0)
(1.24369 0.00336321 0)
(1.24245 0.00336369 0)
(1.24121 0.00336137 0)
(1.23994 0.00335654 0)
(1.23866 0.00334946 0)
(1.23737 0.0033404 0)
(1.23606 0.00332961 0)
(1.23474 0.00331732 0)
(1.23341 0.00330376 0)
(1.26722 -0.00165028 0)
(1.26747 -0.00137261 0)
(1.26768 -0.00110138 0)
(1.26784 -0.000835925 0)
(1.26795 -0.000576762 0)
(1.26801 -0.000323968 0)
(1.26803 -7.76675e-05 0)
(1.26799 0.000161975 0)
(1.26791 0.000394784 0)
(1.26778 0.000620573 0)
(1.2676 0.000839144 0)
(1.26737 0.00105029 0)
(1.2671 0.00125382 0)
(1.26677 0.00144953 0)
(1.2664 0.00163723 0)
(1.26598 0.00181677 0)
(1.26552 0.00198799 0)
(1.26501 0.00215078 0)
(1.26446 0.00230504 0)
(1.26386 0.00245072 0)
(1.26322 0.00258778 0)
(1.26254 0.00271623 0)
(1.26181 0.00283611 0)
(1.26105 0.0029475 0)
(1.26025 0.00305051 0)
(1.25942 0.00314528 0)
(1.25855 0.00323198 0)
(1.25764 0.00331082 0)
(1.25671 0.00338204 0)
(1.25574 0.00344588 0)
(1.25474 0.00350263 0)
(1.25371 0.00355258 0)
(1.25266 0.00359604 0)
(1.25158 0.00363334 0)
(1.25048 0.00366481 0)
(1.24935 0.00369079 0)
(1.2482 0.00371164 0)
(1.24703 0.00372769 0)
(1.24584 0.0037393 0)
(1.24463 0.0037468 0)
(1.2434 0.00375054 0)
(1.24215 0.00375084 0)
(1.24089 0.00374803 0)
(1.23962 0.00374243 0)
(1.23833 0.00373432 0)
(1.23702 0.00372402 0)
(1.2357 0.00371178 0)
(1.23437 0.00369789 0)
(1.23302 0.00368259 0)
(1.26736 -0.00180158 0)
(1.26761 -0.00149603 0)
(1.26781 -0.00119754 0)
(1.26796 -0.000905443 0)
(1.26807 -0.000620291 0)
(1.26812 -0.000342146 0)
(1.26813 -7.11374e-05 0)
(1.26809 0.00019256 0)
(1.268 0.000448758 0)
(1.26786 0.00069725 0)
(1.26767 0.000937816 0)
(1.26743 0.00117023 0)
(1.26714 0.00139426 0)
(1.26681 0.00160969 0)
(1.26643 0.00181631 0)
(1.266 0.00201394 0)
(1.26552 0.00220241 0)
(1.265 0.00238157 0)
(1.26443 0.00255134 0)
(1.26382 0.00271163 0)
(1.26317 0.00286241 0)
(1.26248 0.0030037 0)
(1.26174 0.00313553 0)
(1.26097 0.00325799 0)
(1.26016 0.0033712 0)
(1.25931 0.00347532 0)
(1.25842 0.00357054 0)
(1.2575 0.0036571 0)
(1.25655 0.00373524 0)
(1.25557 0.00380525 0)
(1.25456 0.00386744 0)
(1.25352 0.00392214 0)
(1.25245 0.0039697 0)
(1.25136 0.00401046 0)
(1.25024 0.00404481 0)
(1.2491 0.00407312 0)
(1.24794 0.00409577 0)
(1.24675 0.00411314 0)
(1.24555 0.00412563 0)
(1.24432 0.0041336 0)
(1.24308 0.00413742 0)
(1.24182 0.00413747 0)
(1.24055 0.0041341 0)
(1.23926 0.00412766 0)
(1.23795 0.00411847 0)
(1.23663 0.00410685 0)
(1.2353 0.00409312 0)
(1.23395 0.00407756 0)
(1.2326 0.00406046 0)
(1.26752 -0.00194704 0)
(1.26776 -0.00161396 0)
(1.26795 -0.00128851 0)
(1.2681 -0.00097005 0)
(1.26819 -0.000659175 0)
(1.26824 -0.000355921 0)
(1.26824 -6.04257e-05 0)
(1.26819 0.000227125 0)
(1.26808 0.000506528 0)
(1.26794 0.000777554 0)
(1.26774 0.00103996 0)
(1.26749 0.00129349 0)
(1.26719 0.00153789 0)
(1.26684 0.00177292 0)
(1.26645 0.00199833 0)
(1.26601 0.00221392 0)
(1.26552 0.00241951 0)
(1.26499 0.00261493 0)
(1.26441 0.00280007 0)
(1.26379 0.00297485 0)
(1.26312 0.00313923 0)
(1.26241 0.00329322 0)
(1.26166 0.00343687 0)
(1.26087 0.00357027 0)
(1.26005 0.00369355 0)
(1.25918 0.00380689 0)
(1.25828 0.0039105 0)
(1.25735 0.00400463 0)
(1.25638 0.00408958 0)
(1.25539 0.00416563 0)
(1.25436 0.00423315 0)
(1.2533 0.00429248 0)
(1.25222 0.004344 0)
(1.25111 0.00438812 0)
(1.24998 0.00442524 0)
(1.24882 0.00445576 0)
(1.24764 0.00448011 0)
(1.24644 0.00449872 0)
(1.24523 0.00451198 0)
(1.24399 0.00452033 0)
(1.24273 0.00452416 0)
(1.24146 0.00452388 0)
(1.24017 0.00451987 0)
(1.23886 0.00451251 0)
(1.23754 0.00450216 0)
(1.23621 0.00448917 0)
(1.23486 0.00447387 0)
(1.2335 0.00445659 0)
(1.23213 0.00443762 0)
(1.2677 -0.00208628 0)
(1.26792 -0.00172604 0)
(1.2681 -0.00137393 0)
(1.26824 -0.00102941 0)
(1.26832 -0.000693079 0)
(1.26836 -0.000364958 0)
(1.26835 -4.5195e-05 0)
(1.26829 0.000266013 0)
(1.26818 0.000568444 0)
(1.26802 0.000861845 0)
(1.26781 0.00114594 0)
(1.26755 0.00142046 0)
(1.26724 0.0016851 0)
(1.26688 0.0019396 0)
(1.26647 0.00218369 0)
(1.26602 0.00241713 0)
(1.26552 0.00263971 0)
(1.26497 0.00285126 0)
(1.26437 0.00305166 0)
(1.26374 0.0032408 0)
(1.26306 0.00341865 0)
(1.26233 0.00358521 0)
(1.26157 0.00374054 0)
(1.26076 0.00388474 0)
(1.25992 0.00401795 0)
(1.25904 0.00414037 0)
(1.25813 0.00425223 0)
(1.25718 0.00435381 0)
(1.25619 0.00444541 0)
(1.25518 0.00452737 0)
(1.25414 0.00460008 0)
(1.25307 0.00466391 0)
(1.25197 0.00471928 0)
(1.25084 0.00476663 0)
(1.24969 0.00480639 0)
(1.24852 0.00483902 0)
(1.24732 0.00486497 0)
(1.24611 0.00488469 0)
(1.24487 0.00489864 0)
(1.24362 0.00490727 0)
(1.24235 0.00491101 0)
(1.24106 0.00491031 0)
(1.23975 0.00490558 0)
(1.23843 0.00489722 0)
(1.2371 0.00488563 0)
(1.23575 0.0048712 0)
(1.23439 0.00485426 0)
(1.23301 0.00483518 0)
(1.23162 0.00481428 0)
(1.26788 -0.00221896 0)
(1.26809 -0.00183193 0)
(1.26826 -0.00145348 0)
(1.26839 -0.0010832 0)
(1.26846 -0.000721682 0)
(1.26849 -0.000368935 0)
(1.26847 -2.51164e-05 0)
(1.2684 0.000309562 0)
(1.26827 0.000634854 0)
(1.2681 0.000950481 0)
(1.26788 0.00125614 0)
(1.26761 0.00155151 0)
(1.26728 0.00183628 0)
(1.26691 0.00211013 0)
(1.26649 0.00237278 0)
(1.26602 0.00262395 0)
(1.26551 0.00286342 0)
(1.26494 0.00309099 0)
(1.26433 0.00330651 0)
(1.26368 0.00350988 0)
(1.26298 0.00370107 0)
(1.26224 0.00388006 0)
(1.26146 0.00404693 0)
(1.26064 0.00420179 0)
(1.25978 0.00434478 0)
(1.25888 0.00447613 0)
(1.25795 0.00459609 0)
(1.25698 0.00470496 0)
(1.25598 0.00480307 0)
(1.25495 0.0048908 0)
(1.25389 0.00496855 0)
(1.2528 0.00503675 0)
(1.25169 0.00509584 0)
(1.25054 0.00514628 0)
(1.24938 0.00518857 0)
(1.24819 0.00522318 0)
(1.24698 0.0052506 0)
(1.24574 0.00527133 0)
(1.24449 0.00528586 0)
(1.24322 0.00529467 0)
(1.24193 0.00529823 0)
(1.24062 0.00529701 0)
(1.2393 0.00529146 0)
(1.23797 0.00528202 0)
(1.23662 0.00526912 0)
(1.23525 0.00525315 0)
(1.23387 0.00523451 0)
(1.23248 0.00521356 0)
(1.23108 0.00519065 0)
(1.26807 -0.00234477 0)
(1.26826 -0.00193131 0)
(1.26843 -0.00152686 0)
(1.26854 -0.00113111 0)
(1.26861 -0.000744677 0)
(1.26862 -0.000367539 0)
(1.26859 1.30731e-07 0)
(1.26851 0.0003581 0)
(1.26837 0.0007061 0)
(1.26819 0.00104382 0)
(1.26795 0.00137091 0)
(1.26766 0.00168703 0)
(1.26733 0.00199181 0)
(1.26694 0.00228492 0)
(1.26651 0.00256601 0)
(1.26602 0.0028348 0)
(1.26549 0.00309103 0)
(1.26491 0.00333449 0)
(1.26428 0.00356501 0)
(1.26361 0.00378248 0)
(1.2629 0.00398686 0)
(1.26214 0.00417815 0)
(1.26134 0.00435641 0)
(1.2605 0.00452176 0)
(1.25962 0.00467438 0)
(1.25871 0.00481451 0)
(1.25776 0.00494241 0)
(1.25677 0.00505841 0)
(1.25575 0.00516289 0)
(1.2547 0.00525623 0)
(1.25362 0.00533887 0)
(1.25252 0.00541128 0)
(1.25138 0.00547394 0)
(1.25022 0.00552735 0)
(1.24903 0.00557202 0)
(1.24783 0.00560848 0)
(1.2466 0.00563726 0)
(1.24535 0.00565888 0)
(1.24408 0.00567386 0)
(1.24279 0.00568274 0)
(1.24148 0.00568601 0)
(1.24016 0.00568418 0)
(1.23882 0.00567772 0)
(1.23746 0.00566711 0)
(1.2361 0.0056528 0)
(1.23471 0.00563522 0)
(1.23332 0.00561478 0)
(1.23191 0.00559188 0)
(1.23049 0.00556689 0)
(1.26827 -0.00246339 0)
(1.26845 -0.0020239 0)
(1.2686 -0.00159377 0)
(1.26871 -0.00117286 0)
(1.26876 -0.00076177 0)
(1.26876 -0.000360467 0)
(1.26872 3.08594e-05 0)
(1.26862 0.000411955 0)
(1.26847 0.000782519 0)
(1.26827 0.0011422 0)
(1.26802 0.00149062 0)
(1.26772 0.00182738 0)
(1.26737 0.00215208 0)
(1.26697 0.00246433 0)
(1.26651 0.00276377 0)
(1.26601 0.00305007 0)
(1.26546 0.00332295 0)
(1.26487 0.00358217 0)
(1.26422 0.00382755 0)
(1.26353 0.00405899 0)
(1.2628 0.00427641 0)
(1.26202 0.00447983 0)
(1.2612 0.00466932 0)
(1.26034 0.00484501 0)
(1.25945 0.00500709 0)
(1.25851 0.00515582 0)
(1.25754 0.0052915 0)
(1.25654 0.00541447 0)
(1.2555 0.00552513 0)
(1.25443 0.00562392 0)
(1.25333 0.0057113 0)
(1.2522 0.00578777 0)
(1.25105 0.00585384 0)
(1.24987 0.00591006 0)
(1.24866 0.00595698 0)
(1.24744 0.00599515 0)
(1.24619 0.00602515 0)
(1.24492 0.00604753 0)
(1.24363 0.00606286 0)
(1.24232 0.00607169 0)
(1.241 0.00607456 0)
(1.23965 0.006072 0)
(1.2383 0.00606453 0)
(1.23693 0.00605265 0)
(1.23554 0.00603684 0)
(1.23414 0.00601756 0)
(1.23273 0.00599524 0)
(1.2313 0.00597031 0)
(1.22986 0.00594316 0)
(1.26847 -0.00257457 0)
(1.26864 -0.00210943 0)
(1.26878 -0.00165394 0)
(1.26887 -0.00120817 0)
(1.26891 -0.000772678 0)
(1.2689 -0.000347426 0)
(1.26884 6.73755e-05 0)
(1.26873 0.000471447 0)
(1.26857 0.000864448 0)
(1.26836 0.00124599 0)
(1.26809 0.00161563 0)
(1.26777 0.00197294 0)
(1.26741 0.00231746 0)
(1.26699 0.00264876 0)
(1.26652 0.00296644 0)
(1.266 0.00327014 0)
(1.26543 0.00355955 0)
(1.26481 0.0038344 0)
(1.26415 0.00409451 0)
(1.26344 0.00433975 0)
(1.26268 0.00457006 0)
(1.26189 0.00478545 0)
(1.26105 0.004986 0)
(1.26017 0.00517185 0)
(1.25925 0.00534322 0)
(1.25829 0.00550038 0)
(1.2573 0.00564365 0)
(1.25628 0.00577341 0)
(1.25522 0.00589008 0)
(1.25413 0.00599414 0)
(1.25301 0.00608608 0)
(1.25186 0.00616644 0)
(1.25069 0.00623577 0)
(1.24949 0.00629464 0)
(1.24826 0.00634366 0)
(1.24701 0.0063834 0)
(1.24575 0.00641447 0)
(1.24446 0.00643748 0)
(1.24315 0.00645303 0)
(1.24182 0.00646168 0)
(1.24048 0.00646404 0)
(1.23912 0.00646065 0)
(1.23774 0.00645206 0)
(1.23635 0.00643881 0)
(1.23494 0.0064214 0)
(1.23353 0.00640031 0)
(1.2321 0.00637602 0)
(1.23065 0.00634897 0)
(1.2292 0.00631958 0)