/*--------------------------------*- C++ -*----------------------------------*\
  =========                 |
  \\      /  F ield         | OpenFOAM: The Open Source CFD Toolbox
   \\    /   O peration     | Website:  https://openfoam.org
    \\  /    A nd           | Version:  7
     \\/     M anipulation  |
\*---------------------------------------------------------------------------*/
FoamFile
{
    version     2.0;
    format      ascii;
    class       volScalarField;
    location    "20";
    object      p;
}
// * * * * * * * * * * * * * * * * * * * * * * * * * * * * * * * * * * * * * //

dimensions      [0 2 -2 0 0 0 0];

internalField   nonuniform List<scalar> 
21000
(
-0.162612
-0.144816
-0.132311
-0.11414
-0.108335
-0.0877834
-0.162664
-0.144855
-0.132376
-0.114144
-0.108471
-0.0876143
-0.162767
-0.144935
-0.132506
-0.114151
-0.108742
-0.0872804
-0.162922
-0.145054
-0.132699
-0.114164
-0.109141
-0.08679
-0.163127
-0.145212
-0.132954
-0.114184
-0.109661
-0.0861553
-0.16338
-0.145408
-0.133267
-0.114212
-0.110294
-0.085392
-0.16368
-0.145642
-0.133634
-0.114252
-0.111028
-0.0845193
-0.164024
-0.145913
-0.134053
-0.114306
-0.11185
-0.083559
-0.16441
-0.14622
-0.134518
-0.114378
-0.112744
-0.0825353
-0.146561
-0.135025
-0.11447
-0.113697
-0.081474
-0.146934
-0.135566
-0.114587
-0.11469
-0.080402
-0.147339
-0.136138
-0.114729
-0.115709
-0.0793464
-0.147771
-0.136732
-0.114902
-0.116735
-0.0783343
-0.14823
-0.137343
-0.115106
-0.117754
-0.0773914
-0.148711
-0.137964
-0.115343
-0.118748
-0.076542
-0.149211
-0.138587
-0.115615
-0.119704
-0.0758079
-0.149727
-0.139206
-0.11592
-0.120606
-0.0752081
-0.150253
-0.139813
-0.116258
-0.121443
-0.0747578
-0.150785
-0.1404
-0.116626
-0.122203
-0.0744689
-0.151317
-0.140961
-0.117022
-0.122876
-0.0743486
-0.151845
-0.141489
-0.117442
-0.123454
-0.0744002
-0.15236
-0.141977
-0.117879
-0.123929
-0.0746225
-0.142418
-0.118329
-0.124298
-0.0750103
-0.142805
-0.118784
-0.124555
-0.0755544
-0.143132
-0.119238
-0.1247
-0.0762422
-0.143394
-0.119681
-0.12473
-0.0770579
-0.143584
-0.120107
-0.124647
-0.0779835
-0.143698
-0.120507
-0.12445
-0.0789991
-0.14373
-0.120871
-0.124143
-0.0800833
-0.143676
-0.121193
-0.123727
-0.0812146
-0.121464
-0.123205
-0.0823711
-0.121677
-0.12258
-0.0835317
-0.121823
-0.121854
-0.0846762
-0.121897
-0.121028
-0.0857872
-0.121892
-0.120104
-0.0868528
-0.121803
-0.119082
-0.0878636
-0.117956
-0.0887926
-0.116714
-0.0896004
-0.115339
-0.0904356
-0.113853
-0.0919622
-0.0946246
-0.0956964
-0.0959991
-0.0959465
-0.0959748
-0.0960243
-0.0957209
-0.0946563
-0.113838
-0.0919721
-0.115326
-0.0904368
-0.116704
-0.089603
-0.117948
-0.0887963
-0.121806
-0.119074
-0.087867
-0.121894
-0.120098
-0.0868558
-0.121899
-0.121023
-0.0857899
-0.121825
-0.121849
-0.0846787
-0.121679
-0.122576
-0.083534
-0.121466
-0.123202
-0.0823732
-0.143674
-0.121195
-0.123724
-0.0812164
-0.143729
-0.120873
-0.124141
-0.0800849
-0.143697
-0.120508
-0.124448
-0.0790005
-0.143583
-0.120108
-0.124645
-0.0779848
-0.143393
-0.119682
-0.124729
-0.0770591
-0.143131
-0.119239
-0.124699
-0.0762432
-0.142804
-0.118785
-0.124554
-0.0755553
-0.152858
-0.142417
-0.11833
-0.124297
-0.0750111
-0.15236
-0.141976
-0.11788
-0.123929
-0.0746232
-0.151845
-0.141489
-0.117442
-0.123453
-0.0744008
-0.151318
-0.140961
-0.117023
-0.122875
-0.0743491
-0.150785
-0.1404
-0.116627
-0.122202
-0.0744694
-0.150253
-0.139812
-0.116258
-0.121443
-0.0747583
-0.149727
-0.139206
-0.11592
-0.120606
-0.0752085
-0.149212
-0.138587
-0.115615
-0.119704
-0.0758083
-0.148711
-0.137964
-0.115344
-0.118748
-0.0765424
-0.14823
-0.137343
-0.115106
-0.117754
-0.0773917
-0.147772
-0.136732
-0.114902
-0.116735
-0.0783346
-0.147339
-0.136138
-0.11473
-0.115709
-0.0793467
-0.146934
-0.135566
-0.114587
-0.11469
-0.0804022
-0.146561
-0.135025
-0.114471
-0.113697
-0.0814742
-0.16441
-0.14622
-0.134518
-0.114378
-0.112744
-0.0825355
-0.164024
-0.145913
-0.134053
-0.114307
-0.11185
-0.0835592
-0.16368
-0.145642
-0.133634
-0.114252
-0.111028
-0.0845194
-0.16338
-0.145408
-0.133267
-0.114212
-0.110294
-0.0853921
-0.163127
-0.145212
-0.132954
-0.114184
-0.109661
-0.0861554
-0.162922
-0.145054
-0.132699
-0.114164
-0.109141
-0.0867901
-0.162767
-0.144935
-0.132506
-0.114151
-0.108742
-0.0872805
-0.162664
-0.144855
-0.132376
-0.114144
-0.108471
-0.0876144
-0.162612
-0.144816
-0.132311
-0.11414
-0.108335
-0.0877834
-0.0879952
-0.0869883
-0.0855251
-0.084119
-0.0827476
-0.081365
-0.0799737
-0.0785817
-0.0771922
-0.0758075
-0.0744295
-0.0730601
-0.071701
-0.0703534
-0.0690186
-0.0676976
-0.0663911
-0.0650998
-0.0638244
-0.0625652
-0.0613227
-0.0600971
-0.0588886
-0.0576974
-0.0565235
-0.0553668
-0.0542275
-0.0531054
-0.0520003
-0.0509122
-0.0498408
-0.048786
-0.0477475
-0.046725
-0.0457183
-0.044727
-0.043751
-0.0427898
-0.0418432
-0.0409107
-0.0399922
-0.0390872
-0.0381954
-0.0373165
-0.0364501
-0.0355959
-0.0347535
-0.0339226
-0.0331028
-0.0322939
-0.0314955
-0.0307073
-0.029929
-0.0291603
-0.0284008
-0.0276503
-0.0269085
-0.0261751
-0.0254499
-0.0247325
-0.0240227
-0.0233203
-0.022625
-0.0219366
-0.0212547
-0.0205793
-0.01991
-0.0192466
-0.0185888
-0.0179365
-0.0172894
-0.0166472
-0.0160097
-0.0153766
-0.0147476
-0.0141225
-0.0135009
-0.0128824
-0.0122668
-0.0116537
-0.0110426
-0.010433
-0.00982445
-0.0092164
-0.00860821
-0.00799916
-0.00738857
-0.00677528
-0.00615911
-0.00553684
-0.00491252
-0.00427147
-0.00364415
-0.00295147
-0.00237257
-0.00148336
-0.00124274
0.000522485
-0.00100072
0.0047585
-0.0881685
-0.0871644
-0.0856699
-0.0842446
-0.0828607
-0.081467
-0.0800658
-0.0786653
-0.0772687
-0.0758776
-0.0744942
-0.0731201
-0.0717568
-0.0704056
-0.0690676
-0.0677437
-0.0664346
-0.0651411
-0.0638636
-0.0626026
-0.0613584
-0.0601312
-0.0589213
-0.0577288
-0.0565536
-0.0553959
-0.0542555
-0.0531323
-0.0520263
-0.0509373
-0.0498651
-0.0488094
-0.0477701
-0.0467469
-0.0457394
-0.0447475
-0.0437708
-0.042809
-0.0418617
-0.0409287
-0.0400095
-0.039104
-0.0382116
-0.0373322
-0.0364652
-0.0356105
-0.0347676
-0.0339362
-0.033116
-0.0323066
-0.0315078
-0.0307191
-0.0299404
-0.0291712
-0.0284114
-0.0276605
-0.0269183
-0.0261845
-0.0254589
-0.0247412
-0.0240311
-0.0233284
-0.0226328
-0.021944
-0.0212619
-0.0205861
-0.0199166
-0.0192529
-0.0185949
-0.0179423
-0.017295
-0.0166526
-0.0160148
-0.0153815
-0.0147524
-0.0141271
-0.0135053
-0.0128867
-0.012271
-0.0116577
-0.0110464
-0.0104368
-0.00982813
-0.00921999
-0.00861174
-0.00800263
-0.00739201
-0.0067787
-0.00616252
-0.00554028
-0.00491599
-0.00427502
-0.00364776
-0.00295531
-0.00237635
-0.00148793
-0.00124623
0.000515342
-0.00100074
0.0047403
-0.0885125
-0.087514
-0.0859579
-0.0844944
-0.0830858
-0.0816703
-0.0802496
-0.0788323
-0.0774213
-0.0760178
-0.0746235
-0.07324
-0.0718684
-0.07051
-0.0691655
-0.0678359
-0.0665218
-0.0652237
-0.0639421
-0.0626774
-0.0614298
-0.0601995
-0.0589868
-0.0577916
-0.056614
-0.0554539
-0.0543114
-0.0531863
-0.0520784
-0.0509875
-0.0499136
-0.0488563
-0.0478154
-0.0467907
-0.0457818
-0.0447885
-0.0438104
-0.0428473
-0.0418988
-0.0409645
-0.0400442
-0.0391375
-0.0382441
-0.0373635
-0.0364955
-0.0356397
-0.0347958
-0.0339635
-0.0331423
-0.032332
-0.0315323
-0.0307428
-0.0299632
-0.0291932
-0.0284325
-0.0276808
-0.0269379
-0.0262034
-0.0254771
-0.0247586
-0.0240479
-0.0233445
-0.0226482
-0.0219589
-0.0212761
-0.0205998
-0.0199297
-0.0192655
-0.018607
-0.017954
-0.0173062
-0.0166633
-0.0160252
-0.0153915
-0.0147619
-0.0141362
-0.0135141
-0.0128953
-0.0122792
-0.0116657
-0.0110542
-0.0104443
-0.0098355
-0.0092272
-0.00861882
-0.00800961
-0.00739892
-0.00678557
-0.00616939
-0.00554719
-0.00492297
-0.00428216
-0.003655
-0.00296301
-0.00238391
-0.0014971
-0.00125322
0.000501062
-0.0010008
0.00470397
-0.0890218
-0.0880324
-0.0863856
-0.0848662
-0.0834212
-0.0819735
-0.0805239
-0.0790818
-0.0776495
-0.0762275
-0.0748172
-0.0734196
-0.0720358
-0.0706665
-0.0693124
-0.0679743
-0.0666526
-0.0653477
-0.0640599
-0.0627896
-0.061537
-0.0603021
-0.0590851
-0.0578859
-0.0567047
-0.0555412
-0.0543955
-0.0532673
-0.0521566
-0.0510631
-0.0499865
-0.0489268
-0.0478836
-0.0468566
-0.0458455
-0.0448501
-0.04387
-0.042905
-0.0419545
-0.0410185
-0.0400964
-0.0391879
-0.0382928
-0.0374106
-0.036541
-0.0356837
-0.0348383
-0.0340044
-0.0331818
-0.0323701
-0.0315691
-0.0307782
-0.0299973
-0.0292261
-0.0284642
-0.0277113
-0.0269673
-0.0262316
-0.0255042
-0.0247848
-0.024073
-0.0233686
-0.0226714
-0.0219811
-0.0212975
-0.0206204
-0.0199494
-0.0192844
-0.0186252
-0.0179714
-0.0173229
-0.0166794
-0.0160406
-0.0154063
-0.0147762
-0.01415
-0.0135274
-0.0129081
-0.0122916
-0.0116777
-0.0110658
-0.0104556
-0.00984655
-0.00923801
-0.00862943
-0.00802007
-0.00740926
-0.00679586
-0.00617967
-0.00555753
-0.00493341
-0.00429285
-0.00366584
-0.00297453
-0.00239522
-0.00151081
-0.00126365
0.00047972
-0.00100087
0.00464974
-0.0896883
-0.0887119
-0.0869478
-0.0853559
-0.0838639
-0.0823743
-0.0808872
-0.0794127
-0.0779524
-0.0765062
-0.0750748
-0.0736587
-0.0722586
-0.070875
-0.0695083
-0.0681589
-0.0668271
-0.0655131
-0.0642172
-0.0629395
-0.0616801
-0.0604391
-0.0592164
-0.058012
-0.0568258
-0.0556578
-0.0545078
-0.0533756
-0.0522611
-0.051164
-0.050084
-0.049021
-0.0479746
-0.0469446
-0.0459307
-0.0449325
-0.0439497
-0.042982
-0.042029
-0.0410905
-0.040166
-0.0392553
-0.0383579
-0.0374735
-0.0366018
-0.0357424
-0.0348949
-0.0340591
-0.0332346
-0.0324211
-0.0316182
-0.0308256
-0.030043
-0.02927
-0.0285065
-0.0277521
-0.0270065
-0.0262694
-0.0255405
-0.0248196
-0.0241065
-0.0234008
-0.0227023
-0.0220108
-0.0213261
-0.0206478
-0.0199757
-0.0193097
-0.0186494
-0.0179947
-0.0173452
-0.0167008
-0.0160612
-0.0154261
-0.0147953
-0.0141684
-0.0135451
-0.0129251
-0.0123081
-0.0116936
-0.0110813
-0.0104707
-0.00986122
-0.00925237
-0.00864352
-0.00803395
-0.007423
-0.00680951
-0.00619331
-0.00557125
-0.00494725
-0.00430701
-0.0036802
-0.00298979
-0.00241019
-0.00152898
-0.00127746
0.000451428
-0.00100093
0.00457791
-0.0905012
-0.0895426
-0.0876374
-0.0859584
-0.0844099
-0.0828697
-0.0813369
-0.079823
-0.0783286
-0.0768529
-0.0753955
-0.0739567
-0.0725366
-0.0711353
-0.069753
-0.0683896
-0.0670453
-0.0657201
-0.0644141
-0.0631272
-0.0618594
-0.0606107
-0.0593809
-0.0581699
-0.0569777
-0.055804
-0.0546486
-0.0535114
-0.0523921
-0.0512904
-0.0502062
-0.0491391
-0.0480887
-0.047055
-0.0460374
-0.0450357
-0.0440495
-0.0430785
-0.0421224
-0.0411808
-0.0402533
-0.0393396
-0.0384394
-0.0375523
-0.0366779
-0.0358159
-0.0349659
-0.0341276
-0.0333007
-0.0324848
-0.0316796
-0.0308848
-0.0301001
-0.0293251
-0.0285595
-0.0278031
-0.0270555
-0.0263166
-0.0255859
-0.0248633
-0.0241484
-0.0234411
-0.022741
-0.022048
-0.0213617
-0.020682
-0.0200085
-0.0193412
-0.0186796
-0.0180237
-0.0173731
-0.0167276
-0.0160869
-0.0154508
-0.014819
-0.0141912
-0.0135671
-0.0129464
-0.0123286
-0.0117135
-0.0111006
-0.0104894
-0.00987948
-0.00927022
-0.00866103
-0.00805119
-0.00744005
-0.00682646
-0.00621023
-0.00558826
-0.0049644
-0.00432456
-0.003698
-0.00300871
-0.00242873
-0.00155151
-0.00129452
0.000416333
-0.00100096
0.00448891
-0.0914473
-0.0905118
-0.0884456
-0.086667
-0.0850538
-0.0834556
-0.0818701
-0.0803104
-0.0787765
-0.0772661
-0.0757783
-0.0743128
-0.0728692
-0.0714471
-0.0700462
-0.0686663
-0.0673072
-0.0659687
-0.0646506
-0.0633527
-0.0620749
-0.060817
-0.0595787
-0.0583599
-0.0571603
-0.0559798
-0.054818
-0.0536747
-0.0525497
-0.0514427
-0.0503532
-0.0492812
-0.0482261
-0.0471878
-0.0461658
-0.0451599
-0.0441696
-0.0431947
-0.0422348
-0.0412894
-0.0403584
-0.0394412
-0.0385376
-0.0376471
-0.0367695
-0.0359043
-0.0350513
-0.0342101
-0.0333802
-0.0325615
-0.0317536
-0.0309561
-0.0301687
-0.0293912
-0.0286232
-0.0278643
-0.0271145
-0.0263732
-0.0256404
-0.0249156
-0.0241987
-0.0234894
-0.0227874
-0.0220925
-0.0214044
-0.020723
-0.0200479
-0.0193789
-0.0187159
-0.0180585
-0.0174064
-0.0167596
-0.0161176
-0.0154803
-0.0148474
-0.0142185
-0.0135934
-0.0129717
-0.0123531
-0.0117372
-0.0111236
-0.0105118
-0.00990124
-0.00929148
-0.00868188
-0.00807172
-0.00746034
-0.00684661
-0.00623033
-0.00560847
-0.00498477
-0.00434541
-0.00371911
-0.00303117
-0.0024507
-0.00157827
-0.00131472
0.000374616
-0.00100092
0.00438324
-0.0925104
-0.0916046
-0.0893614
-0.0874734
-0.0857893
-0.0841267
-0.0824826
-0.0808718
-0.0792934
-0.0777439
-0.0762219
-0.0747261
-0.0732557
-0.0718098
-0.0703877
-0.0689888
-0.0676126
-0.0662587
-0.0649267
-0.0636161
-0.0623267
-0.0610581
-0.05981
-0.058582
-0.057374
-0.0561855
-0.0550162
-0.0538659
-0.0527342
-0.0516208
-0.0505253
-0.0494475
-0.0483869
-0.0473433
-0.0463162
-0.0453053
-0.0443103
-0.0433307
-0.0423663
-0.0414166
-0.0404813
-0.03956
-0.0386524
-0.0377581
-0.0368767
-0.0360078
-0.0351512
-0.0343065
-0.0334732
-0.0326512
-0.03184
-0.0310394
-0.030249
-0.0294685
-0.0286975
-0.0279359
-0.0271833
-0.0264394
-0.025704
-0.0249768
-0.0242575
-0.0235458
-0.0228416
-0.0221445
-0.0214543
-0.0207708
-0.0200938
-0.019423
-0.0187581
-0.0180989
-0.0174453
-0.0167969
-0.0161534
-0.0155147
-0.0148804
-0.0142503
-0.013624
-0.0130012
-0.0123816
-0.0117647
-0.0111502
-0.0105376
-0.00992643
-0.00931608
-0.00870598
-0.00809543
-0.00748376
-0.00686987
-0.00625352
-0.00563177
-0.00500824
-0.00436941
-0.0037434
-0.00305704
-0.00247597
-0.0016091
-0.0013379
0.00032649
-0.00100076
0.00426153
-0.0936725
-0.0928034
-0.0903721
-0.0883679
-0.0866084
-0.0848769
-0.0831696
-0.0815032
-0.0798763
-0.0782841
-0.0767242
-0.075195
-0.0736948
-0.0722224
-0.0707766
-0.0693565
-0.0679612
-0.0665899
-0.0652422
-0.0639173
-0.0626147
-0.061334
-0.0600747
-0.0588364
-0.0576187
-0.0564212
-0.0552434
-0.054085
-0.0529457
-0.0518251
-0.0507227
-0.0496382
-0.0485713
-0.0475216
-0.0464886
-0.0454721
-0.0444716
-0.0434867
-0.0425171
-0.0415625
-0.0406223
-0.0396963
-0.0387841
-0.0378853
-0.0369995
-0.0361265
-0.0352657
-0.0344169
-0.0335798
-0.032754
-0.0319391
-0.0311348
-0.0303409
-0.029557
-0.0287827
-0.0280179
-0.0272621
-0.0265152
-0.0257768
-0.0250467
-0.0243246
-0.0236103
-0.0229034
-0.0222039
-0.0215113
-0.0208255
-0.0201462
-0.0194732
-0.0188062
-0.0181451
-0.0174896
-0.0168393
-0.0161942
-0.0155538
-0.014918
-0.0142864
-0.0136587
-0.0130347
-0.0124139
-0.0117959
-0.0111804
-0.0105669
-0.00995495
-0.00934392
-0.00873324
-0.00812222
-0.0075102
-0.0068961
-0.00627966
-0.00565802
-0.00503467
-0.00439645
-0.00377073
-0.00308617
-0.00250436
-0.00164386
-0.00136389
0.000272198
-0.00100045
0.00412445
-0.094913
-0.0940886
-0.0914631
-0.0893389
-0.0875018
-0.0856987
-0.0839248
-0.0821998
-0.0805213
-0.0788834
-0.0772829
-0.0757174
-0.074185
-0.0726838
-0.0712121
-0.0697687
-0.0683523
-0.066962
-0.0655968
-0.0642561
-0.0629389
-0.0616448
-0.060373
-0.0591231
-0.0578946
-0.0566869
-0.0554996
-0.0543322
-0.0531844
-0.0520556
-0.0509454
-0.0498535
-0.0487795
-0.0477229
-0.0466833
-0.0456603
-0.0446536
-0.0436628
-0.0426874
-0.0417271
-0.0407815
-0.0398501
-0.0389327
-0.0380289
-0.0371382
-0.0362603
-0.0353949
-0.0345416
-0.0337
-0.0328699
-0.0320508
-0.0312424
-0.0304445
-0.0296567
-0.0288787
-0.0281102
-0.0273509
-0.0266005
-0.0258588
-0.0251255
-0.0244002
-0.0236828
-0.0229731
-0.0222706
-0.0215753
-0.0208869
-0.020205
-0.0195296
-0.0188603
-0.0181969
-0.0175392
-0.016887
-0.0162398
-0.0155976
-0.01496
-0.0143268
-0.0136976
-0.0130721
-0.0124499
-0.0118307
-0.0112141
-0.0105996
-0.00998671
-0.00937488
-0.00876353
-0.00815198
-0.00753955
-0.0069252
-0.00630863
-0.0056871
-0.00506391
-0.00442636
-0.00380094
-0.00311838
-0.00253569
-0.00168234
-0.0013925
0.000212007
-0.00099991
0.00397276
-0.0962102
-0.0954386
-0.092618
-0.0903738
-0.088459
-0.0865832
-0.0847413
-0.0829558
-0.0812236
-0.0795379
-0.0778947
-0.076291
-0.0747243
-0.0731922
-0.0716928
-0.0702243
-0.0687852
-0.0673742
-0.0659901
-0.064632
-0.0632989
-0.0619901
-0.0607046
-0.059442
-0.0582016
-0.0569827
-0.0557849
-0.0546075
-0.0534502
-0.0523123
-0.0511936
-0.0500934
-0.0490115
-0.0479472
-0.0469003
-0.0458702
-0.0448566
-0.0438591
-0.0428772
-0.0419106
-0.0409589
-0.0400216
-0.0390984
-0.0381889
-0.0372927
-0.0364095
-0.0355389
-0.0346805
-0.0338339
-0.032999
-0.0321752
-0.0313623
-0.0305599
-0.0297678
-0.0289855
-0.0282129
-0.0274497
-0.0266954
-0.02595
-0.025213
-0.0244842
-0.0237635
-0.0230504
-0.0223448
-0.0216464
-0.020955
-0.0202703
-0.0195921
-0.0189202
-0.0182543
-0.0175942
-0.0169397
-0.0162904
-0.0156461
-0.0150065
-0.0143714
-0.0137405
-0.0131133
-0.0124897
-0.0118691
-0.0112512
-0.0106355
-0.0100216
-0.00940886
-0.00879674
-0.00818457
-0.00757165
-0.006957
-0.00634027
-0.00571884
-0.0050958
-0.00445897
-0.00383383
-0.00315351
-0.00256976
-0.00172434
-0.00142352
0.000146212
-0.000999092
0.00380732
-0.0975408
-0.0968304
-0.0938193
-0.0914583
-0.089468
-0.0875206
-0.0856108
-0.0837644
-0.0819779
-0.0802432
-0.078556
-0.0769126
-0.0753101
-0.0737457
-0.072217
-0.0707219
-0.0692586
-0.0678255
-0.0664212
-0.0650445
-0.0636943
-0.0623695
-0.0610693
-0.0597929
-0.0585395
-0.0573084
-0.0560991
-0.0549108
-0.0537431
-0.0525954
-0.0514672
-0.050358
-0.0492673
-0.0481947
-0.0471396
-0.0461018
-0.0450806
-0.0440757
-0.0430867
-0.0421131
-0.0411546
-0.0402108
-0.0392812
-0.0383654
-0.0374632
-0.036574
-0.0356976
-0.0348336
-0.0339816
-0.0331413
-0.0323123
-0.0314943
-0.030687
-0.0298901
-0.0291032
-0.0283261
-0.0275584
-0.0267999
-0.0260503
-0.0253093
-0.0245767
-0.0238521
-0.0231354
-0.0224263
-0.0217245
-0.0210298
-0.020342
-0.0196608
-0.018986
-0.0183173
-0.0176545
-0.0169974
-0.0163457
-0.0156991
-0.0150573
-0.0144202
-0.0137873
-0.0131583
-0.012533
-0.0119108
-0.0112915
-0.0106745
-0.0100595
-0.00944573
-0.00883274
-0.00821986
-0.00760638
-0.00699138
-0.00637442
-0.00575307
-0.00513017
-0.00449412
-0.00386922
-0.00319136
-0.00260635
-0.00176966
-0.00145671
7.51266e-05
-0.000997923
0.00362899
-0.0988811
-0.0982399
-0.0950481
-0.092577
-0.090516
-0.0885
-0.0865242
-0.0846179
-0.0827774
-0.0809939
-0.0792621
-0.0775784
-0.0759393
-0.0743416
-0.0727825
-0.0712597
-0.0697711
-0.0683148
-0.0668891
-0.0654927
-0.0641242
-0.0627825
-0.0614664
-0.0601752
-0.0589079
-0.0576637
-0.056442
-0.055242
-0.0540631
-0.0529047
-0.0517662
-0.0506472
-0.049547
-0.0484653
-0.0474014
-0.046355
-0.0453255
-0.0443126
-0.0433158
-0.0423346
-0.0413688
-0.0404177
-0.0394811
-0.0385585
-0.0376496
-0.036754
-0.0358713
-0.0350011
-0.0341431
-0.0332969
-0.0324622
-0.0316387
-0.030826
-0.0300238
-0.0292318
-0.0284497
-0.0276771
-0.026914
-0.0261598
-0.0254144
-0.0246775
-0.0239488
-0.023228
-0.0225151
-0.0218095
-0.0211113
-0.02042
-0.0197354
-0.0190574
-0.0183857
-0.01772
-0.0170601
-0.0164057
-0.0157565
-0.0151124
-0.014473
-0.0138379
-0.013207
-0.0125798
-0.0119559
-0.011335
-0.0107166
-0.0101002
-0.00948535
-0.00887138
-0.0082577
-0.00764358
-0.00702816
-0.00641093
-0.00578964
-0.00516682
-0.0045316
-0.0039069
-0.00323172
-0.00264523
-0.00181806
-0.00149185
-9.20305e-07
-0.000996327
0.00343874
-0.100207
-0.0996428
-0.096285
-0.0937138
-0.0915889
-0.0895093
-0.0874712
-0.0855078
-0.0836151
-0.0817836
-0.0800079
-0.078284
-0.0766081
-0.0749766
-0.0733867
-0.0718355
-0.0703208
-0.0688404
-0.0673925
-0.0659754
-0.0645877
-0.0632281
-0.0618954
-0.0605885
-0.0593064
-0.0580483
-0.0568133
-0.0556007
-0.0544098
-0.0532399
-0.0520905
-0.0509608
-0.0498505
-0.0487588
-0.0476855
-0.0466298
-0.0455914
-0.0445698
-0.0435645
-0.0425751
-0.0416012
-0.0406424
-0.0396982
-0.0387682
-0.037852
-0.0369494
-0.0360597
-0.0351828
-0.0343183
-0.0334657
-0.0326248
-0.0317953
-0.0309767
-0.0301687
-0.0293711
-0.0285836
-0.0278058
-0.0270375
-0.0262784
-0.0255282
-0.0247866
-0.0240534
-0.0233283
-0.0226111
-0.0219015
-0.0211993
-0.0205042
-0.0198161
-0.0191346
-0.0184595
-0.0177906
-0.0171276
-0.0164703
-0.0158184
-0.0151716
-0.0145297
-0.0138923
-0.0132592
-0.0126299
-0.0120042
-0.0113815
-0.0107615
-0.0101437
-0.00952758
-0.00891253
-0.00829794
-0.0076831
-0.00706718
-0.00644961
-0.00582837
-0.00520558
-0.00457125
-0.00394666
-0.0032744
-0.00268616
-0.00186931
-0.00152868
-8.15851e-05
-0.000994218
0.00323755
-0.101496
-0.101015
-0.09751
-0.0948521
-0.0926722
-0.0905359
-0.088441
-0.0864245
-0.0844827
-0.0826055
-0.0807875
-0.0790244
-0.0773122
-0.0756472
-0.0740263
-0.0724464
-0.0709052
-0.0694002
-0.0679295
-0.0664911
-0.0650836
-0.0637054
-0.0623552
-0.0610319
-0.0597342
-0.0584614
-0.0572124
-0.0559865
-0.0547829
-0.0536008
-0.0524396
-0.0512987
-0.0501774
-0.0490753
-0.0479917
-0.0469261
-0.0458781
-0.0448471
-0.0438328
-0.0428345
-0.041852
-0.0408847
-0.0399323
-0.0389943
-0.0380704
-0.0371601
-0.036263
-0.0353789
-0.0345073
-0.0336478
-0.0328002
-0.0319641
-0.0311391
-0.0303249
-0.0295213
-0.0287279
-0.0279444
-0.0271706
-0.0264061
-0.0256506
-0.024904
-0.0241659
-0.0234361
-0.0227143
-0.0220003
-0.0212939
-0.0205947
-0.0199026
-0.0192173
-0.0185386
-0.0178662
-0.0171999
-0.0165394
-0.0158845
-0.0152349
-0.0145903
-0.0139503
-0.0133148
-0.0126833
-0.0120555
-0.0114309
-0.0108092
-0.0101898
-0.0095723
-0.00895603
-0.00834044
-0.00772476
-0.00710829
-0.0064903
-0.00586906
-0.00524624
-0.00461285
-0.00398829
-0.00331918
-0.0027289
-0.00192318
-0.00156693
-0.000166517
-0.000991508
0.00302641
-0.102726
-0.102332
-0.0987038
-0.0959749
-0.0937508
-0.0915666
-0.0894219
-0.087358
-0.0853715
-0.0834521
-0.0815942
-0.0797937
-0.0780466
-0.076349
-0.0746976
-0.0730894
-0.0715217
-0.069992
-0.0684981
-0.0670381
-0.0656103
-0.0642129
-0.0628447
-0.0615043
-0.0601905
-0.0589023
-0.0576387
-0.0563988
-0.0551818
-0.0539868
-0.0528132
-0.0516603
-0.0505275
-0.0494142
-0.0483198
-0.0472437
-0.0461854
-0.0451445
-0.0441204
-0.0431127
-0.042121
-0.0411447
-0.0401835
-0.0392369
-0.0383046
-0.0373861
-0.0364811
-0.0355891
-0.0347099
-0.0338431
-0.0329882
-0.032145
-0.0313132
-0.0304924
-0.0296822
-0.0288825
-0.0280929
-0.0273131
-0.0265428
-0.0257817
-0.0250296
-0.0242863
-0.0235514
-0.0228247
-0.0221059
-0.0213949
-0.0206913
-0.0199949
-0.0193055
-0.0186229
-0.0179468
-0.0172769
-0.016613
-0.0159548
-0.0153021
-0.0146545
-0.0140119
-0.0133737
-0.0127398
-0.0121097
-0.0114831
-0.0108595
-0.0102384
-0.00961934
-0.00900173
-0.00838503
-0.00776842
-0.0071513
-0.0065328
-0.00591155
-0.00528862
-0.00465621
-0.00403155
-0.00336584
-0.00277318
-0.00197942
-0.00160633
-0.00025536
-0.000988095
0.00280638
-0.103877
-0.103573
-0.0998476
-0.0970659
-0.09481
-0.0925879
-0.0904021
-0.0882979
-0.0862724
-0.0843152
-0.0824211
-0.080586
-0.078806
-0.0770774
-0.0753967
-0.0737609
-0.0721671
-0.0706129
-0.069096
-0.0676142
-0.0661658
-0.0647491
-0.0633625
-0.0620046
-0.0606742
-0.0593701
-0.0580913
-0.0568368
-0.0556058
-0.0543974
-0.0532108
-0.0520454
-0.0509004
-0.0497753
-0.0486694
-0.0475822
-0.0465131
-0.0454616
-0.0444272
-0.0434095
-0.0424079
-0.041422
-0.0404515
-0.0394958
-0.0385545
-0.0376273
-0.0367138
-0.0358135
-0.0349262
-0.0340514
-0.0331888
-0.0323381
-0.0314989
-0.0306709
-0.0298538
-0.0290473
-0.0282511
-0.0274649
-0.0266884
-0.0259213
-0.0251634
-0.0244144
-0.023674
-0.022942
-0.0222182
-0.0215022
-0.0207939
-0.0200929
-0.0193992
-0.0187124
-0.0180322
-0.0173584
-0.0166909
-0.0160292
-0.0153731
-0.0147225
-0.0140768
-0.0134359
-0.0127993
-0.0121668
-0.0115379
-0.0109122
-0.0102893
-0.00966857
-0.00904949
-0.00843156
-0.0078139
-0.00719606
-0.00657696
-0.00595564
-0.00533251
-0.00470114
-0.00407623
-0.00341419
-0.00281876
-0.0020378
-0.0016466
-0.00034776
-0.000983871
0.00257847
-0.10493
-0.104718
-0.100924
-0.0981093
-0.0958351
-0.0935865
-0.0913695
-0.0892334
-0.0871757
-0.0851863
-0.0832604
-0.0813943
-0.0795844
-0.077827
-0.0761188
-0.0744567
-0.0728379
-0.0712599
-0.0697203
-0.068217
-0.0667482
-0.0653119
-0.0639068
-0.0625311
-0.0611838
-0.0598635
-0.0585691
-0.0572996
-0.0560541
-0.0548318
-0.0536317
-0.0524532
-0.0512955
-0.050158
-0.0490401
-0.0479412
-0.0468607
-0.0457981
-0.0447529
-0.0437245
-0.0427126
-0.0417166
-0.0407361
-0.0397707
-0.03882
-0.0378835
-0.0369609
-0.0360518
-0.0351558
-0.0342726
-0.0334018
-0.0325431
-0.0316961
-0.0308605
-0.030036
-0.0292222
-0.028419
-0.027626
-0.0268428
-0.0260693
-0.0253052
-0.0245501
-0.0238039
-0.0230663
-0.022337
-0.0216158
-0.0209024
-0.0201966
-0.0194981
-0.0188068
-0.0181223
-0.0174445
-0.016773
-0.0161075
-0.0154479
-0.0147939
-0.014145
-0.0135011
-0.0128617
-0.0122266
-0.0115953
-0.0109674
-0.0103424
-0.00971985
-0.00909915
-0.00847987
-0.00786104
-0.00724239
-0.00662258
-0.00600116
-0.00537771
-0.00474743
-0.00412209
-0.003464
-0.00286535
-0.00209809
-0.00168745
-0.00044337
-0.000978718
0.00234371
-0.105871
-0.10575
-0.101917
-0.0990904
-0.0968122
-0.0945496
-0.0923124
-0.0901537
-0.0880716
-0.0860566
-0.0841043
-0.0822118
-0.0803757
-0.0785924
-0.076859
-0.0751725
-0.0735301
-0.0719294
-0.070368
-0.0688438
-0.0673549
-0.0658994
-0.0644757
-0.0630823
-0.0617179
-0.0603811
-0.0590709
-0.0577861
-0.0565258
-0.055289
-0.054075
-0.052883
-0.0517121
-0.0505618
-0.0494314
-0.0483203
-0.0472279
-0.0461536
-0.045097
-0.0440575
-0.0430347
-0.042028
-0.0410371
-0.0400615
-0.0391007
-0.0381545
-0.0372223
-0.0363039
-0.0353988
-0.0345066
-0.0336271
-0.0327599
-0.0319046
-0.0310609
-0.0302285
-0.0294071
-0.0285964
-0.0277961
-0.027006
-0.0262257
-0.0254549
-0.0246934
-0.023941
-0.0231974
-0.0224623
-0.0217355
-0.0210167
-0.0203057
-0.0196023
-0.0189062
-0.0182171
-0.0175348
-0.0168591
-0.0161897
-0.0155263
-0.0148686
-0.0142164
-0.0135692
-0.0129269
-0.0122889
-0.011655
-0.0110247
-0.0103975
-0.00977302
-0.00915057
-0.00852981
-0.00790969
-0.00729013
-0.00666949
-0.00604793
-0.00542402
-0.00479492
-0.00416892
-0.00351509
-0.00291271
-0.00216007
-0.00172859
-0.000541854
-0.000972503
0.00210313
-0.106688
-0.106654
-0.102813
-0.0999961
-0.0977287
-0.095465
-0.0932194
-0.0910482
-0.0889505
-0.0869172
-0.0849449
-0.0830312
-0.0811731
-0.0793677
-0.0776121
-0.0759036
-0.0742396
-0.0726177
-0.0710357
-0.0694915
-0.0679832
-0.0665089
-0.0650671
-0.0636561
-0.0622747
-0.0609214
-0.0595952
-0.0582949
-0.0570195
-0.0557681
-0.0545399
-0.0533339
-0.0521495
-0.050986
-0.0498426
-0.0487189
-0.0476141
-0.0465277
-0.0454592
-0.044408
-0.0433738
-0.042356
-0.0413541
-0.0403678
-0.0393965
-0.03844
-0.0374978
-0.0365695
-0.0356548
-0.0347532
-0.0338645
-0.0329883
-0.0321242
-0.031272
-0.0304313
-0.0296018
-0.0287832
-0.0279753
-0.0271777
-0.0263902
-0.0256124
-0.0248441
-0.0240852
-0.0233352
-0.0225939
-0.0218612
-0.0211367
-0.0204202
-0.0197115
-0.0190103
-0.0183164
-0.0176295
-0.0169493
-0.0162756
-0.0156082
-0.0149467
-0.0142908
-0.0136402
-0.0129946
-0.0123537
-0.011717
-0.0110841
-0.0104545
-0.00982795
-0.0092036
-0.00858123
-0.00795968
-0.00733912
-0.00671752
-0.00609579
-0.00547127
-0.0048434
-0.00421649
-0.00356727
-0.00296056
-0.00222353
-0.00176972
-0.000642892
-0.00096508
0.00185769
-0.107373
-0.107418
-0.103601
-0.100815
-0.0985729
-0.0963215
-0.0940797
-0.0919069
-0.0898029
-0.0877595
-0.0857741
-0.0838451
-0.0819702
-0.0801468
-0.0783726
-0.076645
-0.0749618
-0.0733208
-0.0717199
-0.070157
-0.0686303
-0.067138
-0.0656786
-0.0642505
-0.0628523
-0.0614827
-0.0601405
-0.0588247
-0.0575342
-0.056268
-0.0550252
-0.0538051
-0.0526068
-0.0514297
-0.050273
-0.0491362
-0.0480186
-0.0469197
-0.0458389
-0.0447756
-0.0437295
-0.0427001
-0.0416868
-0.0406893
-0.0397071
-0.0387398
-0.037787
-0.0368484
-0.0359236
-0.0350121
-0.0341137
-0.0332281
-0.0323548
-0.0314936
-0.0306442
-0.0298062
-0.0289793
-0.0281633
-0.0273578
-0.0265627
-0.0257775
-0.0250021
-0.0242362
-0.0234795
-0.0227318
-0.0219928
-0.0212623
-0.02054
-0.0198257
-0.0191191
-0.0184201
-0.0177282
-0.0170433
-0.0163652
-0.0156934
-0.0150278
-0.0143681
-0.0137139
-0.0130649
-0.0124208
-0.0117811
-0.0111454
-0.0105134
-0.00988451
-0.0092581
-0.00863399
-0.00801087
-0.00738921
-0.0067665
-0.00614457
-0.00551925
-0.00489273
-0.00426458
-0.00362035
-0.00300864
-0.00228829
-0.00181053
-0.000746189
-0.000956285
0.00160832
-0.107918
-0.108037
-0.104273
-0.101538
-0.0993353
-0.0971092
-0.0948837
-0.0927205
-0.09062
-0.088575
-0.086584
-0.0846463
-0.0827601
-0.0809236
-0.0791348
-0.0773917
-0.0756922
-0.0740345
-0.0724166
-0.0708367
-0.0692929
-0.0677838
-0.0663076
-0.064863
-0.0634486
-0.062063
-0.0607052
-0.0593739
-0.0580682
-0.0567872
-0.0555298
-0.0542954
-0.053083
-0.0518921
-0.0507218
-0.0495716
-0.0484409
-0.047329
-0.0462355
-0.0451598
-0.0441014
-0.0430598
-0.0420347
-0.0410255
-0.0400319
-0.0390534
-0.0380897
-0.0371403
-0.0362049
-0.0352831
-0.0343746
-0.0334791
-0.0325962
-0.0317256
-0.0308669
-0.03002
-0.0291844
-0.0283599
-0.0275462
-0.0267431
-0.0259501
-0.0251672
-0.024394
-0.0236303
-0.0228757
-0.0221302
-0.0213933
-0.0206649
-0.0199447
-0.0192325
-0.018528
-0.0178309
-0.0171411
-0.0164582
-0.0157819
-0.015112
-0.0144482
-0.0137902
-0.0131376
-0.01249
-0.0118471
-0.0112086
-0.0105738
-0.00994255
-0.00931393
-0.00868796
-0.0080631
-0.00744026
-0.00681628
-0.00619412
-0.00556779
-0.00494273
-0.00431299
-0.00367417
-0.00305669
-0.00235416
-0.00185071
-0.000851481
-0.000945932
0.00135591
-0.108323
-0.108505
-0.104822
-0.102158
-0.100008
-0.0978198
-0.0956229
-0.0934804
-0.0913934
-0.0893558
-0.0873671
-0.0854276
-0.0835363
-0.081692
-0.0798932
-0.0781384
-0.0764261
-0.0747545
-0.073122
-0.071527
-0.069968
-0.0684433
-0.0669515
-0.0654913
-0.0640613
-0.0626604
-0.0612872
-0.0599409
-0.0586202
-0.0573244
-0.0560525
-0.0548036
-0.0535771
-0.0523721
-0.051188
-0.0500242
-0.04888
-0.0477549
-0.0466484
-0.0455598
-0.0444888
-0.0434348
-0.0423974
-0.0413762
-0.0403707
-0.0393806
-0.0384054
-0.0374448
-0.0364984
-0.0355659
-0.0346469
-0.033741
-0.0328481
-0.0319676
-0.0310994
-0.0302431
-0.0293984
-0.028565
-0.0277427
-0.0269311
-0.0261301
-0.0253393
-0.0245584
-0.0237873
-0.0230256
-0.0222731
-0.0215296
-0.0207948
-0.0200684
-0.0193503
-0.01864
-0.0179375
-0.0172425
-0.0165546
-0.0158735
-0.0151991
-0.014531
-0.0138689
-0.0132125
-0.0125613
-0.0119151
-0.0112735
-0.0106358
-0.010002
-0.00937096
-0.00874299
-0.00811626
-0.00749213
-0.00686671
-0.0062443
-0.00561672
-0.00499326
-0.00436149
-0.0037286
-0.00310444
-0.002421
-0.00188994
-0.000958539
-0.000933808
0.00110125
-0.108588
-0.108822
-0.105244
-0.102669
-0.100584
-0.0984464
-0.09629
-0.0941792
-0.0921157
-0.0900945
-0.0881164
-0.0861824
-0.0842924
-0.0824459
-0.0806421
-0.07888
-0.0771585
-0.0754763
-0.073832
-0.0722244
-0.0706519
-0.0691134
-0.0676075