/*--------------------------------*- C++ -*----------------------------------*\
  =========                 |
  \\      /  F ield         | OpenFOAM: The Open Source CFD Toolbox
   \\    /   O peration     | Website:  https://openfoam.org
    \\  /    A nd           | Version:  7
     \\/     M anipulation  |
\*---------------------------------------------------------------------------*/
FoamFile
{
    version     2.0;
    format      ascii;
    class       surfaceScalarField;
    location    "20";
    object      phi;
}
// * * * * * * * * * * * * * * * * * * * * * * * * * * * * * * * * * * * * * //

dimensions      [0 3 -1 0 0 0 0];

internalField   nonuniform List<scalar> 
41682
(
0.0011463
-0.000220672
2.73828e-10
0.00140101
-0.000254704
-4.05757e-10
0.00169147
-0.000290458
-2.3239e-09
0.00202574
-0.000334275
-3.6713e-09
0.00239677
-0.000371014
-7.05281e-09
-0.000445521
-9.52794e-09
0.0028423
0.0011556
-0.000443022
0.00141226
-0.000511359
0.00170501
-0.000583207
0.00204185
-0.000671122
0.00241596
-0.00074512
-0.000893933
0.00286437
0.00117413
-0.000668709
0.00143467
-0.000771891
0.00173196
-0.000880499
0.0020739
-0.00101306
0.00245412
-0.00112534
-0.00134805
0.00290823
0.00120175
-0.000899355
0.00146803
-0.00103817
0.00177205
-0.00118452
0.00212152
-0.00136252
0.00251077
-0.00151459
-0.00181059
0.00297331
0.00123824
-0.00113652
0.00151207
-0.00131201
0.00182491
-0.00149736
0.0021842
-0.00172182
0.00258525
-0.00191564
-0.00228411
0.00305877
0.00128331
-0.0013817
0.00156639
-0.00159509
0.00189
-0.00182096
0.00226127
-0.00209309
0.00267664
-0.00233101
-0.00277095
0.00316348
0.00133663
-0.00163628
0.00163054
-0.00188899
0.00196671
-0.00215713
0.00235187
-0.00247825
0.00278387
-0.00276301
-0.00327318
0.0032861
0.00139778
-0.00190155
0.00170395
-0.00219516
0.00205429
-0.00250746
0.00245505
-0.00287901
0.00290563
-0.00321359
-0.00379259
0.00342504
0.0014663
0.001786
-0.00251486
0.0021519
-0.00287336
0.00256968
-0.0032968
0.00304048
-0.00368439
-0.00433061
0.00357849
0.00187599
-0.00284919
0.00225861
-0.00325599
0.00269456
-0.00373275
0.00318682
-0.00417664
-0.0048883
0.0037445
0.00197315
-0.00319905
0.00237342
-0.00365627
0.00282837
-0.0041877
0.00334292
-0.00469119
-0.00546632
0.00392095
0.00207666
-0.00356516
0.00249524
-0.00407484
0.00296972
-0.00466218
0.00350697
-0.00522843
-0.00606494
0.00410558
0.00218566
-0.003948
0.00262293
-0.00451211
0.00311715
-0.0051564
0.00367708
-0.00578836
-0.00668397
0.00429611
0.00229925
-0.00434786
0.00275532
-0.00496817
0.00326915
-0.00567024
0.00385131
-0.00637052
-0.00732284
0.00449018
0.00241648
-0.00476479
0.00289119
-0.00544288
0.00342422
-0.00620328
0.00402774
-0.00697404
-0.00798055
0.00468545
0.00253639
-0.00519863
0.00302931
-0.00593581
0.00358082
-0.00675479
0.00420444
-0.00759766
-0.00865574
0.00487963
0.00265802
-0.00564901
0.00316847
-0.00644625
0.00373745
-0.00732377
0.00437954
-0.00823975
-0.00934669
0.00507049
0.0027804
-0.00611535
0.00330744
-0.00697328
0.00389262
-0.00790895
0.00455124
-0.00889837
-0.0100514
0.00525594
0.00290257
-0.00659687
0.00344502
-0.00751574
0.0040449
-0.00850883
0.00471785
-0.00957132
-0.0107676
0.00543404
0.00302357
-0.0070926
0.00358007
-0.00807223
0.00419294
-0.00912171
0.00487779
-0.0102562
-0.0114928
0.00560301
0.00314249
-0.00760142
0.00371147
-0.00864121
0.00433545
-0.00974569
0.00502962
-0.0109503
-0.0122245
0.0057613
0.00325844
0.00383819
-0.00922096
0.00447126
-0.0103788
0.00517206
-0.0116511
-0.01296
0.00590755
0.00395925
-0.00980963
0.00459929
-0.0110188
0.005304
-0.0123558
-0.0136966
0.00604065
0.00407378
-0.0104053
0.00471859
-0.0116636
0.00542451
-0.0130618
-0.0144318
0.00615972
0.00418097
-0.0110059
0.00482834
-0.012311
0.00553283
-0.0137663
-0.0151631
0.0062641
0.00428013
-0.0116095
0.00492784
-0.0129587
0.00562839
-0.0144668
-0.0158881
0.00635337
0.00437066
-0.012214
0.00501655
-0.0136046
0.00571079
-0.0151611
-0.0166046
0.00642731
0.00445208
-0.0128175
0.00509404
-0.0142465
0.00577981
-0.0158468
-0.0173107
0.00648591
0.00452398
-0.0134179
0.00516005
-0.0148826
0.00583538
-0.0165221
-0.0180046
0.00652931
0.00458609
0.00521442
-0.0155109
0.00587757
-0.0171853
-0.0186849
0.00655783
0.00525712
-0.0161298
0.0059066
-0.0178348
-0.0193502
0.0065719
0.00528824
-0.0167378
0.00592278
-0.0184693
-0.0199995
0.00657208
0.00530797
-0.0173334
0.00592653
-0.0190879
-0.0206319
0.006559
0.00531659
-0.0179155
0.00591834
-0.0196896
-0.0212469
0.00653335
0.00531445
-0.0184833
0.00589876
-0.0202739
-0.0218441
0.0064959
0.00530199
0.00586835
-0.0208403
-0.0224232
0.00644744
0.00582771
-0.0213884
-0.0229844
0.0063889
0.0057774
-0.0219178
-0.0235282
0.0063212
0.00571795
-0.0224282
-0.024056
0.0062458
0.00565002
-0.0245726
0.00616665
-0.0251013
0.00610427
-0.0256071
0.00599987
-0.02609
0.00588938
0.0057747
0.0260898
0.00577472
0.025607
0.00588939
0.0251012
0.00599983
0.0245722
0.00610457
0.00564998
0.0224282
0.0240556
0.00616655
0.00571792
0.0219178
0.0235278
0.00624568
0.00577738
0.0213884
0.0229841
0.00632112
0.00582769
0.0208404
0.022423
0.00638883
0.00530198
0.0184832
0.00586834
0.020274
0.0218439
0.00644738
0.00531444
0.0179155
0.00589875
0.0196897
0.0212468
0.00649585
0.00531657
0.0173333
0.00591833
0.0190879
0.0206318
0.00653331
0.00530795
0.0167377
0.00592652
0.0184694
0.0199994
0.00655897
0.00528822
0.0161298
0.00592277
0.0178348
0.0193501
0.00657205
0.0052571
0.0155109
0.00590659
0.0171853
0.0186848
0.00657188
0.00458608
0.0134179
0.0052144
0.0148826
0.00587756
0.0165222
0.0180046
0.00655781
0.00452397
0.0128175
0.00516004
0.0142465
0.00583537
0.0158469
0.0173106
0.00652929
0.00445207
0.012214
0.00509403
0.0136046
0.0057798
0.0151611
0.0166046
0.00648589
0.00437066
0.0116095
0.00501654
0.0129587
0.00571079
0.0144668
0.0158881
0.0064273
0.00428012
0.0110059
0.00492783
0.012311
0.00562838
0.0137663
0.0151631
0.00635336
0.00418096
0.0104053
0.00482833
0.0116636
0.00553283
0.0130618
0.0144318
0.00626409
0.00407377
0.00980963
0.00471858
0.0110188
0.0054245
0.0123559
0.0136966
0.00615971
0.00337057
0.00812201
0.00395925
0.00922096
0.00459928
0.0103788
0.005304
0.0116512
0.01296
0.00604064
0.00325843
0.00760141
0.00383818
0.00864121
0.00447125
0.00974569
0.00517205
0.0109504
0.0122245
0.00590754
0.00314248
0.0070926
0.00371146
0.00807224
0.00433545
0.0091217
0.00502961
0.0102562
0.0114928
0.00576129
0.00302356
0.00659686
0.00358006
0.00751574
0.00419293
0.00850883
0.00487778
0.00957134
0.0107676
0.005603
0.00290256
0.00611534
0.00344502
0.00697329
0.0040449
0.00790895
0.00471785
0.00889839
0.0100514
0.00543403
0.0027804
0.005649
0.00330743
0.00644626
0.00389261
0.00732377
0.00455124
0.00823977
0.0093467
0.00525593
0.00265802
0.00519862
0.00316847
0.00593581
0.00373744
0.00675479
0.00437954
0.00759768
0.00865576
0.00507048
0.00253639
0.00476478
0.00302931
0.00544289
0.00358082
0.00620328
0.00420444
0.00697406
0.00798057
0.00487962
0.00241647
0.00434786
0.00289118
0.00496818
0.00342422
0.00567024
0.00402774
0.00637054
0.00732286
0.00468545
0.00229925
0.003948
0.00275531
0.00451211
0.00326915
0.00515641
0.00385131
0.00578838
0.00668399
0.00449018
0.00218566
0.00356516
0.00262293
0.00407485
0.00311714
0.00466219
0.00367707
0.00522845
0.00606496
0.00429611
0.00207666
0.00319905
0.00249524
0.00365627
0.00296972
0.00418771
0.00350697
0.0046912
0.00546634
0.00410558
0.00197314
0.00284919
0.00237342
0.003256
0.00282837
0.00373275
0.00334292
0.00417666
0.00488832
0.00392094
0.00187598
0.00251486
0.00225861
0.00287337
0.00269456
0.0032968
0.00318681
0.0036844
0.00433063
0.0037445
0.0014663
0.00190155
0.001786
0.00219516
0.0021519
0.00250747
0.00256968
0.00287902
0.00304048
0.00321361
0.00379261
0.00357849
0.00139778
0.00163628
0.00170395
0.00188899
0.00205428
0.00215713
0.00245504
0.00247826
0.00290563
0.00276302
0.0032732
0.00342503
0.00133663
0.0013817
0.00163054
0.00159509
0.0019667
0.00182096
0.00235187
0.00209309
0.00278387
0.00233103
0.00277097
0.0032861
0.00128331
0.00113652
0.00156639
0.00131201
0.00189
0.00149736
0.00226126
0.00172183
0.00267664
0.00191565
0.00228413
0.00316348
0.00123824
0.000899354
0.00151207
0.00103817
0.0018249
0.00118452
0.0021842
0.00136253
0.00258525
0.00151461
0.00181061
0.00305877
0.00120175
0.000668709
0.00146803
0.000771892
0.00177205
0.000880503
0.00212152
0.00101307
0.00251077
0.00112535
0.00134807
0.00297331
0.00117413
0.000443021
0.00143467
0.00051136
0.00173196
0.000583212
0.0020739
0.000671129
0.00245412
0.000745134
0.000893952
0.00290823
0.0011556
0.000220671
0.00141226
0.000254704
0.00170501
0.000290463
0.00204185
0.000334282
0.00241596
0.000371028
0.00044554
0.00286437
0.0011463
0.00140101
0.00169147
0.00202574
0.00239677
0.0028423
0.00288066
-3.83594e-05
-2.14603e-09
0.00291816
-3.74964e-05
-2.28007e-09
0.00295494
-3.67769e-05
-2.41907e-09
0.00299109
-3.61469e-05
-2.56316e-09
0.00302667
-3.55832e-05
-2.71233e-09
0.00306175
-3.50784e-05
-2.8665e-09
0.00309638
-3.46245e-05
-3.02557e-09
0.0031306
-3.42134e-05
-3.18938e-09
0.00316444
-3.38383e-05
-3.35776e-09
0.00319794
-3.34935e-05
-3.53049e-09
0.00323111
-3.31739e-05
-3.70729e-09
0.00326399
-3.28754e-05
-3.88782e-09
0.00329659
-3.25945e-05
-4.07168e-09
0.00332892
-3.23279e-05
-4.2584e-09
0.003361
-3.20731e-05
-4.44742e-09
0.00339283
-3.18278e-05
-4.6381e-09
0.00342443
-3.15899e-05
-4.82972e-09
0.00345579
-3.13578e-05
-5.02145e-09
0.00348693
-3.113e-05
-5.21236e-09
0.00351784
-3.09053e-05
-5.40139e-09
0.00354852
-3.06826e-05
-5.58739e-09
0.00357899
-3.0461e-05
-5.76903e-09
0.00360924
-3.02396e-05
-5.94484e-09
0.00363926
-3.00179e-05
-6.11324e-09
0.00366906
-2.97952e-05
-6.27246e-09
0.00369864
-2.95711e-05
-6.42055e-09
0.00372799
-2.93452e-05
-6.55543e-09
0.00375712
-2.91171e-05
-6.67479e-09
0.00378601
-2.88865e-05
-6.77613e-09
0.00381467
-2.86534e-05
-6.85674e-09
0.00384309
-2.84174e-05
-6.91371e-09
0.00387128
-2.81784e-05
-6.9439e-09
0.00389922
-2.79364e-05
-6.94392e-09
0.00392692
-2.76914e-05
-6.91019e-09
0.00395437
-2.74432e-05
-6.83886e-09
0.00398157
-2.71918e-05
-6.72587e-09
0.00400851
-2.69374e-05
-6.5669e-09
0.0040352
-2.66799e-05
-6.35742e-09
0.00406162
-2.64194e-05
-6.09263e-09
0.00408779
-2.61559e-05
-5.76755e-09
0.00411368
-2.58896e-05
-5.37702e-09
0.00413931
-2.56205e-05
-4.91567e-09
0.00416466
-2.53487e-05
-4.37798e-09
0.00418974
-2.50745e-05
-3.7584e-09
0.00421454
-2.47979e-05
-3.05124e-09
0.00423906
-2.4519e-05
-2.25081e-09
0.0042633
-2.4238e-05
-1.35151e-09
0.00428725
-2.3955e-05
-3.47809e-10
0.00431092
-2.36702e-05
7.65549e-10
0.00433431
-2.33838e-05
1.99353e-09
0.0043574
-2.3096e-05
3.3407e-09
0.0043802
-2.28068e-05
4.81097e-09
0.00440271
-2.25165e-05
6.40767e-09
0.00442493
-2.22253e-05
8.13321e-09
0.00444685
-2.19333e-05
9.98896e-09
0.00446848
-2.16407e-05
1.19751e-08
0.00448981
-2.13478e-05
1.40902e-08
0.00451085
-2.10547e-05
1.63314e-08
0.00453159
-2.07615e-05
1.86938e-08
0.00455204
-2.04686e-05
2.11701e-08
0.00457219
-2.01762e-05
2.3751e-08
0.00459205
-1.98844e-05
2.64241e-08
0.00461162
-1.95934e-05
2.91739e-08
0.00463089
-1.93036e-05
3.19819e-08
0.00464987
-1.90151e-05
3.48256e-08
0.00466856
-1.87283e-05
3.76788e-08
0.00468696
-1.84434e-05
4.05109e-08
0.00470508
-1.81607e-05
4.32871e-08
0.00472291
-1.78805e-05
4.59675e-08
0.00474047
-1.76032e-05
4.85077e-08
0.00475775
-1.73292e-05
5.08581e-08
0.00477475
-1.70588e-05
5.29641e-08
0.00479149
-1.67926e-05
5.47661e-08
0.00480797
-1.6531e-05
5.61997e-08
0.00482418
-1.62747e-05
5.71956e-08
0.00484015
-1.60242e-05
5.76805e-08
0.00485587
-1.57802e-05
5.75774e-08
0.00487136
-1.55435e-05
5.68061e-08
0.00488662
-1.53149e-05
5.52844e-08
0.00490166
-1.50954e-05
5.29294e-08
0.0049165
-1.48859e-05
4.96583e-08
0.00493114
-1.46877e-05
4.53905e-08
0.0049456
-1.4502e-05
4.00491e-08
0.0049599
-1.43301e-05
3.35632e-08
0.00497405
-1.41733e-05
2.58706e-08
0.00498806
-1.40333e-05
1.6919e-08
0.00500197
-1.39115e-05
6.67224e-09
0.00501578
-1.38095e-05
-4.893e-09
0.00502953
-1.3729e-05
-1.77724e-08
0.00504323
-1.3671e-05
-3.19494e-08
0.00505692
-1.36376e-05
-4.73621e-08
0.00507061
-1.36279e-05
-6.39428e-08
0.00508434
-1.36462e-05
-8.15559e-08
0.00509812
-1.36828e-05
-1.00063e-07
0.005112
-1.3759e-05
-1.19263e-07
0.00512595
-1.38166e-05
-1.38875e-07
0.00514009
-1.39841e-05
-1.58772e-07
0.00515421
-1.39322e-05
-1.78198e-07
0.00516881
-1.44108e-05
-1.97794e-07
-1.35098e-05
-2.14128e-07
0.00290226
-7.62495e-05
0.00293931
-7.45472e-05
0.00297567
-7.31321e-05
0.00301141
-7.18917e-05
0.00304661
-7.07805e-05
0.00308132
-6.97846e-05
0.00311558
-6.88886e-05
0.00314944
-6.80767e-05
0.00318294
-6.73354e-05
0.0032161
-6.66536e-05
0.00324895
-6.60215e-05
0.0032815
-6.5431e-05
0.00331378
-6.4875e-05
0.0033458
-6.43474e-05
0.00337757
-6.38429e-05
0.0034091
-6.3357e-05
0.0034404
-6.28858e-05
0.00347147
-6.24261e-05
0.00350231
-6.19748e-05
0.00353294
-6.15295e-05
0.00356334
-6.10882e-05
0.00359353
-6.06489e-05
0.0036235
-6.02102e-05
0.00365325
-5.97706e-05
0.00368279
-5.93291e-05
0.0037121
-5.88846e-05
0.00374119
-5.84365e-05
0.00377006
-5.79841e-05
0.0037987
-5.75267e-05
0.00382711
-5.7064e-05
0.00385529
-5.65957e-05
0.00388323
-5.61214e-05
0.00391094
-5.5641e-05
0.0039384
-5.51544e-05
0.00396562
-5.46615e-05
0.00399259
-5.41623e-05
0.00401931
-5.36568e-05
0.00404577
-5.31451e-05
0.00407198
-5.26273e-05
0.00409793
-5.21035e-05
0.00412361
-5.1574e-05
0.00414903
-5.10389e-05
0.00417418
-5.04984e-05
0.00419906
-4.99528e-05
0.00422366
-4.94023e-05
0.00424799
-4.88471e-05
0.00427204
-4.82877e-05
0.00429581
-4.77242e-05
0.0043193
-4.7157e-05
0.0043425
-4.65864e-05
0.00436542
-4.60127e-05
0.00438804
-4.54362e-05
0.00441039
-4.48574e-05
0.00443244
-4.42766e-05
0.0044542
-4.36941e-05
0.00447567
-4.31102e-05
0.00449684
-4.25255e-05
0.00451773
-4.19402e-05
0.00453832
-4.13549e-05
0.00455862
-4.07698e-05
0.00457863
-4.01854e-05
0.00459835
-3.96023e-05
0.00461778
-3.90207e-05
0.00463692
-3.84414e-05
0.00465577
-3.78647e-05
0.00467433
-3.72912e-05
0.00469261
-3.67215e-05
0.0047106
-3.61563e-05
0.00472832
-3.55962e-05
0.00474576
-3.5042e-05
0.00476292
-3.44944e-05
0.00477982
-3.39544e-05
0.00479645
-3.3423e-05
0.00481282
-3.29013e-05
0.00482893
-3.23903e-05
0.0048448
-3.18914e-05
0.00486043
-3.14062e-05
0.00487582
-3.09361e-05
0.00489099
-3.0483e-05
0.00490594
-3.00488e-05
0.00492069
-2.96357e-05
0.00493525
-2.92459e-05
0.00494963
-2.88821e-05
0.00496385
-2.8547e-05
0.00497792
-2.82434e-05
0.00499186
-2.79744e-05
0.00500569
-2.77432e-05
0.00501943
-2.75527e-05
0.00503311
-2.74064e-05
0.00504675
-2.73065e-05
0.00506037
-2.72568e-05
0.00507399
-2.72557e-05
0.00508766
-2.73116e-05
0.00510138
-2.74048e-05
0.0051152
-2.75779e-05
0.0051291
-2.7714e-05
0.00514318
-2.80705e-05
0.00515724
-2.79878e-05
0.00517179
-2.89654e-05
-2.7187e-05
0.00294519
-0.000113205
0.00298135
-0.00011071
0.00301687
-0.000108645
0.00305181
-0.000106833
0.00308623
-0.000105206
0.00312019
-0.000103746
0.00315374
-0.000102431
0.0031869
-0.000101238
0.00321971
-0.000100148
0.0032522
-9.91446e-05
0.00328439
-9.82138e-05
0.00331631
-9.73437e-05
0.00334795
-9.6524e-05
0.00337935
-9.57458e-05
0.00341051
-9.50014e-05
0.00344144
-9.42842e-05
0.00347214
-9.35886e-05
0.00350262
-9.29095e-05
0.00353289
-9.22429e-05
0.00356295
-9.15851e-05
0.00359279
-9.09328e-05
0.00362243
-9.02835e-05
0.00365185
-8.96348e-05
0.00368107
-8.89847e-05
0.00371007
-8.83316e-05
0.00373886
-8.76742e-05
0.00376743
-8.70111e-05
0.00379579
-8.63414e-05
0.00382393
-8.56644e-05
0.00385184
-8.49793e-05
0.00387953
-8.42857e-05
0.003907
-8.35832e-05
0.00393423
-8.28715e-05
0.00396122
-8.21504e-05
0.00398798
-8.14198e-05
0.0040145
-8.06797e-05
0.00404077
-7.99302e-05
0.0040668
-7.91714e-05
0.00409257
-7.84033e-05
0.0041181
-7.76263e-05
0.00414336
-7.68405e-05
0.00416837
-7.60463e-05
0.00419312
-7.5244e-05
0.0042176
-7.44339e-05
0.00424181
-7.36165e-05
0.00426576
-7.2792e-05
0.00428943
-7.19609e-05
0.00431283
-7.11237e-05
0.00433595
-7.02808e-05
0.0043588
-6.94328e-05
0.00438137
-6.858e-05
0.00440365
-6.7723e-05
0.00442566
-6.68623e-05
0.00444738
-6.59984e-05
0.00446882
-6.51319e-05
0.00448997
-6.42634e-05
0.00451084
-6.33933e-05
0.00453142
-6.25224e-05
0.00455172
-6.16511e-05
0.00457173
-6.07802e-05
0.00459145
-5.99103e-05
0.00461089
-5.9042e-05
0.00463005
-5.81761e-05
0.00464892
-5.73134e-05
0.00466751
-5.64545e-05
0.00468582
-5.56004e-05
0.00470385
-5.47519e-05
0.0047216
-5.39101e-05
0.00473908
-5.30759e-05
0.00475629
-5.22505e-05
0.00477323
-5.14352e-05
0.00478991
-5.06313e-05
0.00480633
-4.98402e-05
0.00482249
-4.90637e-05
0.0048384
-4.83035e-05
0.00485407
-4.75617e-05
0.00486951
-4.68404e-05
0.00488471
-4.61421e-05
0.0048997
-4.54695e-05
0.00491448
-4.48256e-05
0.00492905
-4.42136e-05
0.00494344
-4.36371e-05
0.00495766
-4.30999e-05
0.00497172
-4.2606e-05
0.00498564
-4.21599e-05
0.00499943
-4.17662e-05
0.00501312
-4.14296e-05
0.00502672
-4.11546e-05
0.00504026
-4.09464e-05
0.00505376
-4.08081e-05
0.00506725
-4.07456e-05
0.00508075
-4.07563e-05
0.00509429
-4.0853e-05
0.00510789
-4.10058e-05
0.00512159
-4.12788e-05
0.00513537
-4.14963e-05
0.00514935
-4.20446e-05
0.0051633
-4.19346e-05
0.00517774
-4.34126e-05
-4.07714e-05
0.00300889
-0.000148777
0.00304373
-0.000145557
0.003078
-0.000142911
0.00311175
-0.000140584
0.00314503
-0.000138488
0.00317789
-0.000136603
0.00321036
-0.000134903
0.00324248
-0.000133359
0.00327428
-0.000131946
0.00330578
-0.000130644
0.003337
-0.000129435
0.00336796
-0.000128303
0.00339867
-0.000127237
0.00342915
-0.000126224
0.0034594
-0.000125254
0.00348944
-0.000124319
0.00351926
-0.000123412
0.00354888
-0.000122527
0.00357829
-0.000121657
0.0036075
-0.000120798
0.00363652
-0.000119946
0.00366533
-0.000119098
0.00369395
-0.000118251
0.00372237
-0.000117401
0.00375058
-0.000116547
0.00377859
-0.000115687
0.0038064
-0.00011482
0.00383401
-0.000113944
0.0038614
-0.000113058
0.00388858
-0.000112161
0.00391555
-0.000111252
0.0039423
-0.000110332
0.00396882
-0.0001094
0.00399513
-0.000108454
0.00402121
-0.000107497
0.00404705
-0.000106526
0.00407266
-0.000105543
0.00409804
-0.000104547
0.00412318
-0.000103539
0.00414807
-0.00010252
0.00417272
-0.000101488
0.00419712
-0.000100445
0.00422126
-9.9391e-05
0.00424516
-9.83267e-05
0.00426879
-9.72524e-05
0.00429217
-9.61688e-05
0.00431528
-9.50762e-05
0.00433814
-9.39754e-05
0.00436072
-9.28669e-05
0.00438304
-9.17514e-05
0.00440509
-9.06294e-05
0.00442687
-8.95017e-05
0.00444838
-8.8369e-05
0.00446961
-8.72319e-05
0.00449057
-8.60912e-05
0.00451125
-8.49475e-05
0.00453166
-8.38018e-05
0.00455179
-8.26547e-05
0.00457165
-8.15071e-05
0.00459123
-8.03597e-05
0.00461053
-7.92135e-05
0.00462956
-7.80694e-05
0.00464831
-7.69283e-05
0.00466679
-7.57912e-05
0.00468499
-7.46592e-05
0.00470293
-7.35334e-05
0.00472059
-7.2415e-05
0.00473798
-7.13053e-05
0.00475511
-7.02057e-05
0.00477198
-6.91178e-05
0.00478859
-6.80431e-05
0.00480494
-6.69835e-05
0.00482104
-6.59411e-05
0.0048369
-6.4918e-05
0.00485251
-6.39166e-05
0.00486789
-6.29397e-05
0.00488304
-6.19901e-05
0.00489797
-6.10713e-05
0.00491268
-6.01868e-05
0.0049272
-5.93405e-05
0.00494152
-5.85369e-05
0.00495567
-5.77805e-05
0.00496964
-5.70767e-05
0.00498347
-5.64308e-05
0.00499716
-5.58487e-05
0.00501073
-5.53365e-05
0.0050242
-5.49006e-05
0.00503759
-5.4547e-05
0.00505093
-5.42823e-05
0.00506423
-5.41111e-05
0.00507752
-5.40409e-05
0.00509084
-5.40683e-05
0.00510419
-5.42105e-05
0.00511762
-5.44274e-05
0.00513114
-5.48047e-05
0.00514475
-5.51077e-05
0.00515856
-5.5852e-05
0.00517235
-5.57199e-05
0.00518663
-5.77004e-05
-5.42181e-05
0.00309253
-0.000182542
0.00312566
-0.000178683
0.00315829
-0.000175543
0.00319048
-0.000172774
0.00322226
-0.000170269
0.00325367
-0.000168011
0.00328474
-0.000165971
0.00331549
-0.000164114
0.00334596
-0.000162413
0.00337616
-0.000160842
0.0034061
-0.000159381
0.00343581
-0.000158013
0.0034653
-0.000156723
0.00349457
-0.000155495
0.00352364
-0.000154319
0.0035525
-0.000153185
0.00358117
-0.000152084
0.00360966
-0.000151008
0.00363795
-0.000149951
0.00366606
-0.000148907
0.00369398
-0.000147871
0.00372173
-0.000146839
0.00374928
-0.000145807
0.00377665
-0.000144772
0.00380384
-0.000143732
0.00383083
-0.000142684
0.00385764
-0.000141626
0.00388425
-0.000140557
0.00391067
-0.000139476
0.00393689
-0.000138381
0.00396291
-0.000137272
0.00398873
-0.000136147
0.00401434
-0.000135008
0.00403973
-0.000133852
0.00406492
-0.000132681
0.00408988
-0.000131493
0.00411463
-0.00013029
0.00413916
-0.000129071
0.00416345
-0.000127837
0.00418752
-0.000126588
0.00421136
-0.000125324
0.00423496
-0.000124045
0.00425832
-0.000122753
0.00428144
-0.000121448
0.00430432
-0.00012013
0.00432695
-0.000118801
0.00434934
-0.00011746
0.00437147
-0.000116109
0.00439335
-0.000114748
0.00441498
-0.000113378
0.00443635
-0.000112
0.00445746
-0.000110614
0.00447831
-0.000109222
0.00449891
-0.000107825
0.00451924
-0.000106423
0.00453931
-0.000105017
0.00455911
-0.000103608
0.00457866
-0.000102197
0.00459793
-0.000100785
0.00461695
-9.93738e-05
0.0046357
-9.79636e-05
0.00465418
-9.65557e-05
0.00467241
-9.51515e-05
0.00469037
-9.3752e-05
0.00470807
-9.23586e-05
0.00472551
-9.09728e-05
0.00474269
-8.95961e-05
0.00475961
-8.823e-05
0.00477628
-8.68763e-05
0.0047927
-8.5537e-05
0.00480887
-8.42141e-05
0.0048248
-8.29099e-05
0.00484049
-8.16269e-05
0.00485594
-8.03678e-05
0.00487115
-7.91358e-05
0.00488615
-7.79342e-05
0.00490093
-7.67666e-05
0.00491549
-7.56372e-05
0.00492985
-7.45506e-05
0.00494403
-7.35116e-05
0.00495801
-7.25257e-05
0.00497183
-7.15989e-05
0.00498549
-7.07374e-05
0.00499901
-6.99482e-05
0.0050124
-6.92387e-05
0.00502568
-6.86162e-05
0.00503887
-6.80889e-05
0.00505199
-6.76642e-05
0.00506505
-6.73506e-05
0.0050781
-6.71534e-05
0.00509114
-6.70822e-05
0.0051042
-6.71328e-05
0.00511732
-6.73267e-05
0.0051305
-6.76133e-05
0.0051438
-6.8101e-05
0.00515719
-6.84948e-05
0.00517078
-6.94407e-05
0.00518435
-6.92933e-05
0.00519843
-7.17789e-05
-6.74839e-05
0.00319504
-0.000214106
0.00322607
-0.00020971
0.00325671
-0.00020618
0.00328699
-0.000203056
0.00331694
-0.000200216
0.00334657
-0.000197648
0.00337592
-0.000195322
0.00340501
-0.0001932
0.00343385
-0.00019125
0.00346245
-0.000189448
0.00349084
-0.000187769
0.00351902
-0.000186195
0.00354701
-0.000184707
0.0035748
-0.000183291
0.00360242
-0.000181933
0.00362985
-0.000180622
0.00365712
-0.000179348
0.00368421
-0.000178103
0.00371114
-0.000176878
0.0037379
-0.000175667
0.00376449
-0.000174466
0.00379092
-0.000173268
0.00381718
-0.000172069
0.00384328
-0.000170867
0.0038692
-0.000169658
0.00389496
-0.000168438
0.00392054
-0.000167208
0.00394595
-0.000165963
0.00397117
-0.000164703
0.00399622
-0.000163427
0.00402108
-0.000162133
0.00404575
-0.000160822
0.00407024
-0.000159492
0.00409453
-0.000158142
0.00411862
-0.000156774
0.00414251
-0.000155386
0.0041662
-0.00015398
0.00418969
-0.000152554
0.00421296
-0.00015111
0.00423602
-0.000149648
0.00425886
-0.000148168
0.00428149
-0.00014667
0.00430389
-0.000145157
0.00432607
-0.000143627
0.00434802
-0.000142082
0.00436974
-0.000140522
0.00439123
-0.00013895
0.00441249
-0.000137364
0.00443351
-0.000135766
0.00445429
-0.000134158
0.00447483
-0.000132539
0.00449512
-0.000130912
0.00451518
-0.000129277
0.00453499
-0.000127634
0.00455455
-0.000125986
0.00457387
-0.000124333
0.00459294
-0.000122676
0.00461176
-0.000121017
0.00463033
-0.000119356
0.00464865
-0.000117696
0.00466672
-0.000116036
0.00468455
-0.00011438
0.00470212
-0.000112727
0.00471945
-0.00011108
0.00473653
-0.000109439
0.00475336
-0.000107808
0.00476996
-0.000106187
0.0047863
-0.000104578
0.00480241
-0.000102985
0.00481828
-0.000101408
0.00483392
-9.985e-05
0.00484932
-9.83146e-05
0.0048645
-9.68043e-05
0.00487946
-9.53224e-05
0.00489419
-9.38726e-05
0.00490872
-9.24589e-05
0.00492304
-9.10858e-05
0.00493716
-8.97581e-05
0.00495109
-8.84814e-05
0.00496484
-8.72615e-05
0.00497842
-8.6105e-05
0.00499184
-8.50189e-05
0.00500511
-8.40109e-05
0.00501825
-8.30891e-05
0.00503127
-8.22624e-05
0.0050442
-8.15398e-05
0.00505704
-8.09308e-05
0.00506982
-8.04445e-05
0.00508256
-8.00908e-05
0.00509528
-7.98763e-05
0.00510801
-7.98125e-05
0.00512078
-7.98939e-05
0.0051336
-8.01472e-05
0.00514649
-8.05106e-05
0.00515951
-8.11157e-05
0.00517262
-8.16069e-05
0.00518594
-8.27612e-05
0.00519925
-8.26069e-05
0.00521308
-8.56007e-05
-8.0528e-05
0.0033151
-0.000243111
0.00334369
-0.000238294
0.003372
-0.000234491
0.00340006
-0.000231113
0.00342786
-0.000228021
0.00345543
-0.000225215
0.00348277
-0.000222665
0.00350991
-0.000220333
0.00353684
-0.000218185
0.00356359
-0.000216194
0.00359015
-0.000214337
0.00361655
-0.000212591
0.00364278
-0.000210939
0.00366885
-0.000209364
0.00369477
-0.000207852
0.00372054
-0.00020639
0.00374616
-0.000204969
0.00377164
-0.000203577
0.00379697
-0.000202208
0.00382215
-0.000200854
0.00384719
-0.000199508
0.00387209
-0.000198165
0.00389684
-0.000196821
0.00392145
-0.000195472
0.00394591
-0.000194114
0.00397021
-0.000192744
0.00399436
-0.00019136
0.00401836
-0.000189959
0.0040422
-0.000188541
0.00406587
-0.000187103
0.00408938
-0.000185644
0.00411273
-0.000184165
0.0041359
-0.000182664
0.0041589
-0.00018114
0.00418172
-0.000179594
0.00420436
-0.000178026
0.00422681
-0.000176435
0.00424908
-0.000174822
0.00427116
-0.000173187
0.00429304
-0.000171531
0.00431472
-0.000169854
0.00433621
-0.000168156
0.00435749
-0.00016644
0.00437857
-0.000164704
0.00439944
-0.000162951
0.0044201
-0.000161181
0.00444054
-0.000159394
0.00446077
-0.000157593
0.00448078
-0.000155777
0.00450057
-0.000153949
0.00452014
-0.000152108
0.00453949
-0.000150257
0.00455861
-0.000148397
0.0045775
-0.000146528
0.00459617
-0.000144651
0.0046146
-0.000142769
0.00463281
-0.000140883
0.00465078
-0.000138993
0.00466853
-0.000137101
0.00468604
-0.000135209
0.00470332
-0.000133318
0.00472037
-0.000131429
0.00473719
-0.000129545
0.00475378
-0.000127667
0.00477013
-0.000125796
0.00478626
-0.000123936
0.00480216
-0.000122087
0.00481784
-0.000120253
0.00483329
-0.000118435
0.00484852
-0.000116636
0.00486353
-0.00011486
0.00487832
-0.000113109
0.0048929
-0.000111387
0.00490728
-0.000109697
0.00492145
-0.000108045
0.00493542
-0.000106434
0.00494921
-0.00010487
0.00496281
-0.000103358
0.00497623
-0.000101906
0.00498949
-0.000100519
0.00500259
-9.92049e-05
0.00501554
-9.79728e-05
0.00502836
-9.6831e-05
0.00504106
-9.57893e-05
0.00505366
-9.48577e-05
0.00506617
-9.40467e-05
0.0050786
-9.33674e-05
0.00509099
-9.28303e-05
0.00510334
-9.24472e-05
0.00511569
-9.22254e-05
0.00512806
-9.21786e-05
0.00514047
-9.23e-05
0.00515294
-9.26215e-05
0.0051655
-9.30699e-05
0.00517818
-9.38009e-05
0.00519097
-9.43971e-05
0.00520398
-9.57679e-05
0.00521699
-9.56162e-05
0.00523051
-9.9122e-05
-9.33124e-05
0.00345117
-0.000269245
0.00347701
-0.000264133
0.0035027
-0.000260184
0.00352825
-0.00025666
0.00355364
-0.000253409
0.00357886
-0.000250443
0.00360394
-0.000247741
0.00362887
-0.00024526
0.00365365
-0.000242969
0.0036783
-0.000240839
0.00370281
-0.000238846
0.00372718
-0.00023697
0.00375144
-0.00023519
0.00377556
-0.000233491
0.00379957
-0.000231857
0.00382345
-0.000230275
0.00384722
-0.000228734
0.00387086
-0.000227224
0.00389439
-0.000225737
0.0039178
-0.000224264
0.00394109
-0.000222799
0.00396427
-0.000221336
0.00398731
-0.00021987
0.00401024
-0.000218397
0.00403304
-0.000216913
0.00405571
-0.000215414
0.00407825
-0.000213899
0.00410065
-0.000212365
0.00412292
-0.00021081
0.00414505
-0.000209233
0.00416704
-0.000207632
0.00418888
-0.000206006
0.00421057
-0.000204356
0.00423211
-0.00020268
0.0042535
-0.000200978
0.00427472
-0.00019925
0.00429578
-0.000197496
0.00431668
-0.000195717
0.00433741
-0.000193913
0.00435796
-0.000192085
0.00437834
-0.000190232
0.00439854
-0.000188356
0.00441856
-0.000186458
0.00443839
-0.000184538
0.00445804
-0.000182597
0.00447749
-0.000180637
0.00449676
-0.000178658
0.00451583
-0.000176662
0.0045347
-0.00017465
0.00455337
-0.000172622
0.00457185
-0.00017058
0.00459011
-0.000168526
0.00460818
-0.000166461
0.00462604
-0.000164386
0.00464369
-0.000162302
0.00466113
-0.000160211
0.00467836
-0.000158114
0.00469538
-0.000156013
0.00471219
-0.00015391
0.00472879
-0.000151806
0.00474517
-0.000149703
0.00476134
-0.000147602
0.00477731
-0.000145505
0.00479305
-0.000143416
0.00480859
-0.000141334
0.00482392
-0.000139263
0.00483904
-0.000137206
0.00485395
-0.000135164
0.00486865
-0.00013314
0.00488316
-0.000131138
0.00489746
-0.000129161
0.00491156
-0.000127212
0.00492547
-0.000125295
0.00493919
-0.000123416
0.00495272
-0.000121577
0.00496607
-0.000119786
0.00497925
-0.000118048
0.00499226
-0.000116368
0.00500511
-0.000114756
0.00501781
-0.000113217
0.00503037
-0.000111762
0.00504279
-0.000110399
0.0050551
-0.000109138
0.0050673
-0.00010799
0.00507941
-0.000106968
0.00509145
-0.000106082
0.00510342
-0.000105345
0.00511536
-0.00010477
0.00512728
-0.000104369
0.00513921
-0.000104151
0.00515116
-0.000104132
0.00516317
-0.000104304
0.00517525
-0.000104704
0.00518743
-0.000105246
0.00519974
-0.000106113
0.00521216
-0.000106823
0.00522482
-0.000108419
0.00523748
-0.000108281
0.00525066
-0.000112302
-0.000105803
0.0036015
-0.000292246
0.00362433
-0.000286967
0.00364715
-0.000283007
0.00366995
-0.000279452
0.00369268
-0.000276139
0.00371533
-0.000273101
0.00373791
-0.000270322
0.00376041
-0.00026776
0.00378283
-0.000265385
0.00380516
-0.00026317
0.00382741
-0.000261092
0.00384957
-0.000259129
0.00387164
-0.000257263
0.00389363
-0.000255477
0.00391553
-0.000253757
0.00393734
-0.000252088
0.00395907
-0.00025046
0.0039807
-0.000248862
0.00400225
-0.000247285
0.00402371
-0.000245722
0.00404508
-0.000244165
0.00406635
-0.000242608
0.00408752
-0.000241046
0.0041086
-0.000239475
0.00412958
-0.00023789
0.00415046
-0.000236289
0.00417122
-0.000234668
0.00419188
-0.000233024
0.00421243
-0.000231357
0.00423286
-0.000229664
0.00425317
-0.000227945
0.00427337
-0.000226197
0.00429343
-0.000224421
0.00431337
-0.000222616
0.00433317
-0.000220782
0.00435284
-0.000218919
0.00437237
-0.000217026
0.00439176
-0.000215105
0.004411
-0.000213155
0.00443009
-0.000211177
0.00444903
-0.000209172
0.00446782
-0.000207141
0.00448644
-0.000205085
0.00450491
-0.000203003
0.00452321
-0.000200899
0.00454134
-0.000198772
0.00455931
-0.000196624
0.0045771
-0.000194455
0.00459472
-0.000192269
0.00461216
-0.000190064
0.00462943
-0.000187844
0.00464651