/*--------------------------------*- C++ -*----------------------------------*\
  =========                 |
  \\      /  F ield         | OpenFOAM: The Open Source CFD Toolbox
   \\    /   O peration     | Website:  https://openfoam.org
    \\  /    A nd           | Version:  7
     \\/     M anipulation  |
\*---------------------------------------------------------------------------*/
FoamFile
{
    version     2.0;
    format      ascii;
    class       volVectorField;
    location    "20";
    object      U;
}
// * * * * * * * * * * * * * * * * * * * * * * * * * * * * * * * * * * * * * //

dimensions      [0 1 -1 0 0 0 0];

internalField   nonuniform List<vector> 
21000
(
(0.238603 -0.00343015 9.45882e-22)
(0.269707 -0.0035463 2.90208e-21)
(0.300018 -0.00362104 -1.59192e-21)
(0.332978 -0.00375683 -3.54716e-21)
(0.362676 -0.00368786 -3.57028e-22)
(0.397391 -0.00419395 -1.56587e-21)
(0.240912 -0.0102714 5.00959e-21)
(0.272266 -0.0106163 -6.63326e-21)
(0.302816 -0.0108382 3.19117e-21)
(0.336076 -0.0112394 1.01037e-20)
(0.365947 -0.011034 -2.38548e-22)
(0.401161 -0.0125304 -7.50702e-22)
(0.245516 -0.0170555 5.67482e-21)
(0.277368 -0.0176187 5.99029e-21)
(0.308391 -0.0179802 -6.83114e-21)
(0.342246 -0.0186279 -8.20672e-21)
(0.372459 -0.0182899 2.7173e-21)
(0.408658 -0.0207115 1.06011e-20)
(0.252393 -0.0237447 -7.00616e-21)
(0.284982 -0.0245086 -5.37067e-21)
(0.316705 -0.0249974 1.13091e-20)
(0.351436 -0.0258609 1.96444e-21)
(0.382152 -0.0253969 -6.8691e-21)
(0.4198 -0.0286367 -8.8732e-21)
(0.261506 -0.0303018 1.85572e-21)
(0.29506 -0.0312423 -5.71889e-21)
(0.327699 -0.0318414 5.21759e-21)
(0.363571 -0.0328782 -1.38611e-20)
(0.394938 -0.032298 -5.18115e-21)
(0.434463 -0.0362107 4.54827e-21)
(0.272807 -0.0366901 -3.42398e-20)
(0.307541 -0.0377768 -5.06419e-21)
(0.341295 -0.0384651 7.6272e-21)
(0.378549 -0.0396222 9.09298e-21)
(0.4107 -0.0389391 1.69942e-20)
(0.452486 -0.0433444 -3.97936e-21)
(0.286237 -0.042874 4.42376e-20)
(0.322348 -0.0440708 3.81043e-20)
(0.357399 -0.044823 -2.95052e-20)
(0.396247 -0.0460378 1.58079e-20)
(0.429295 -0.0452691 -1.04963e-20)
(0.473668 -0.0499573 -2.15275e-21)
(0.301726 -0.0488187 -1.99388e-20)
(0.339392 -0.0500843 -1.53448e-20)
(0.375898 -0.0508719 3.03697e-20)
(0.416521 -0.0520737 -6.49394e-21)
(0.450557 -0.0512405 -2.50501e-20)
(0.497779 -0.0559785 1.98874e-20)
(0.319195 -0.0544909 -2.35893e-20)
(0.358568 -0.0557795 -3.13126e-20)
(0.396665 -0.0565709 -3.51828e-20)
(0.439203 -0.0576824 3.99177e-21)
(0.474297 -0.0568096 1.18906e-20)
(0.524552 -0.0613484 -2.87484e-20)
(0.37976 -0.0611207 4.7796e-20)
(0.419555 -0.0618821 1.38791e-20)
(0.464111 -0.062821 -3.01996e-21)
(0.500306 -0.0619371 3.97976e-20)
(0.5537 -0.0660194 7.73044e-21)
(0.402839 -0.0660748 -7.48295e-20)
(0.444412 -0.0667704 -7.65782e-22)
(0.491044 -0.0674518 -1.60838e-20)
(0.528357 -0.0665878 3.86822e-21)
(0.584907 -0.0699566 -4.33978e-21)
(0.427669 -0.0706113 6.74783e-20)
(0.471066 -0.0712046 1.13027e-20)
(0.519788 -0.0715427 1.85422e-20)
(0.55821 -0.0707312 -3.78123e-20)
(0.617845 -0.0731384 2.13922e-20)
(0.4541 -0.0747031 -8.60435e-21)
(0.499339 -0.0751567 -8.6528e-21)
(0.550116 -0.0750675 -1.82257e-20)
(0.589613 -0.0743412 2.97012e-20)
(0.65217 -0.0755561 -3.42673e-20)
(0.481975 -0.0783261 5.15832e-22)
(0.52904 -0.0786032 -4.26965e-21)
(0.581794 -0.0780065 4.35052e-20)
(0.622306 -0.0773964 -8.182e-21)
(0.687534 -0.0772141 3.49698e-20)
(0.511131 -0.0814598 2.46899e-22)
(0.559973 -0.0815244 2.8182e-20)
(0.614578 -0.0803468 -5.89944e-20)
(0.656022 -0.0798806 4.29149e-20)
(0.723587 -0.0781286 -2.91234e-20)
(0.541399 -0.0840877 -4.71921e-20)
(0.591937 -0.0839053 -2.47222e-20)
(0.648223 -0.0820822 7.74026e-20)
(0.690492 -0.0817824 -5.95236e-20)
(0.759987 -0.0783272 -3.14118e-21)
(0.572604 -0.0861967 2.6301e-20)
(0.624725 -0.0857356 9.65785e-21)
(0.682483 -0.0832135 -5.10872e-20)
(0.725448 -0.0830962 -4.11277e-21)
(0.7964 -0.0778472 3.38019e-20)
(0.604568 -0.0877784 -2.68783e-21)
(0.658129 -0.0870096 -3.70959e-20)
(0.717112 -0.0837483 -1.49135e-20)
(0.760626 -0.0838219 -1.45831e-20)
(0.83251 -0.0767347 -5.20735e-21)
(0.637113 -0.0888281 2.76641e-20)
(0.691943 -0.0877265 -1.30989e-20)
(0.751871 -0.0837005 5.768e-20)
(0.795768 -0.0839655 3.0455e-20)
(0.868021 -0.0750427 -2.59194e-20)
(0.67006 -0.0893455 -5.80546e-20)
(0.72596 -0.0878905 3.51174e-20)
(0.786527 -0.0830907 -2.68441e-20)
(0.830625 -0.0835392 -6.20465e-20)
(0.902665 -0.0728294 4.21173e-20)
(0.703229 -0.0893347 3.63773e-20)
(0.75998 -0.0875108 2.19767e-20)
(0.820859 -0.0819447 -3.03553e-20)
(0.86496 -0.0825616 6.79436e-20)
(0.936199 -0.0701572 -3.89442e-20)
(0.736448 -0.0888038 2.61213e-21)
(0.793808 -0.0866012 -2.57255e-20)
(0.854656 -0.0802936 7.88187e-21)
(0.898555 -0.0810575 2.76887e-20)
(0.968415 -0.0670902 -5.24902e-22)
(0.827256 -0.0851803 2.4408e-20)
(0.887724 -0.0781727 -3.86262e-20)
(0.931206 -0.0790575 -1.04824e-20)
(0.999136 -0.0636935 -1.05854e-20)
(0.860147 -0.0832713 -3.38498e-20)
(0.919886 -0.0756211 3.25691e-20)
(0.962732 -0.076598 -2.87754e-20)
(1.02822 -0.0600311 2.92782e-20)
(0.892317 -0.080901 -7.99927e-21)
(0.950983 -0.0726801 4.67467e-20)
(0.992973 -0.0737199 6.3213e-20)
(1.05555 -0.0561652 -1.90731e-21)
(0.923612 -0.0781005 7.68358e-20)
(0.980876 -0.0693935 -4.42236e-20)
(1.02179 -0.0704682 -5.11869e-21)
(1.08107 -0.0521545 -2.58698e-20)
(0.953897 -0.0749037 -8.6396e-21)
(1.00945 -0.0658057 4.07642e-22)
(1.04908 -0.0668907 -2.9542e-20)
(1.10471 -0.0480537 -2.01091e-21)
(0.98305 -0.0713472 -2.15942e-20)
(1.0366 -0.0619618 -2.25226e-21)
(1.07476 -0.0630369 -4.75537e-20)
(1.12647 -0.0439126 4.3864e-20)
(1.01096 -0.0674696 6.5592e-20)
(1.06225 -0.0579062 6.35913e-20)
(1.09876 -0.0589568 -2.67907e-20)
(1.14636 -0.0397757 -9.78095e-20)
(1.03755 -0.063311 -1.60267e-19)
(1.08635 -0.0536824 -9.43817e-20)
(1.12105 -0.0546996 2.97008e-20)
(1.1644 -0.0356819 9.71369e-20)
(1.10886 -0.0493323 1.0522e-20)
(1.14162 -0.0503129 7.41539e-20)
(1.18066 -0.0316644 -1.24672e-20)
(1.12977 -0.0448956 1.11188e-19)
(1.16047 -0.0458412 5.55894e-21)
(1.19519 -0.0277514 -3.97473e-20)
(1.14907 -0.0404096 -6.36936e-20)
(1.17765 -0.0413253 -9.01554e-20)
(1.20808 -0.023966 5.46563e-20)
(1.16679 -0.0359085 2.36138e-20)
(1.19318 -0.0368012 -1.29358e-20)
(1.21941 -0.0203277 -1.21354e-19)
(1.18296 -0.0314236 8.60283e-21)
(1.20714 -0.0323 -5.5855e-20)
(1.22928 -0.0168546 1.11625e-19)
(1.19761 -0.0269826 -1.19244e-20)
(1.2196 -0.0278474 1.12381e-19)
(1.23778 -0.013565 -5.11886e-20)
(1.23063 -0.0234629 6.16787e-20)
(1.245 -0.0104755 8.55664e-20)
(1.24031 -0.0191579 -4.08833e-20)
(1.25102 -0.00759744 -6.72931e-20)
(1.24873 -0.0149329 1.30668e-20)
(1.25594 -0.00497893 -1.28295e-20)
(1.25596 -0.0107934 -1.08206e-20)
(1.25995 -0.0028625 1.20538e-20)
(1.26343 -0.00160026 -8.82146e-21)
(1.26701 -0.000225962 1.11523e-20)
(1.27004 0.00143437 7.78768e-20)
(1.27239 0.00326436 1.04174e-20)
(1.27237 -0.00324933 -1.25944e-19)
(1.27002 -0.00142239 6.64861e-20)
(1.267 0.000234822 8.86217e-21)
(1.2634 0.00161873 -1.50501e-20)
(1.25597 0.0107897 -7.78389e-20)
(1.25992 0.00286465 9.78073e-21)
(1.24873 0.0149312 1.65667e-20)
(1.25592 0.00497877 -6.9e-21)
(1.24031 0.0191576 -6.07665e-20)
(1.251 0.00759761 -6.71504e-20)
(1.23063 0.0234636 6.43539e-20)
(1.24498 0.0104756 6.73583e-20)
(1.19761 0.0269834 -5.25656e-20)
(1.2196 0.0278486 1.1982e-19)
(1.23777 0.0135649 -7.22689e-20)
(1.18295 0.0314243 6.94008e-21)
(1.20715 0.0323017 -5.27854e-20)
(1.22927 0.0168545 1.11102e-19)
(1.16679 0.0359091 2.47401e-20)
(1.19318 0.0368032 -6.67595e-21)
(1.2194 0.0203276 -1.10482e-19)
(1.14907 0.0404101 -6.62729e-20)
(1.17765 0.0413274 -9.2976e-20)
(1.20807 0.023966 4.94791e-20)
(1.12976 0.044896 1.00234e-19)
(1.16047 0.0458435 1.08023e-20)
(1.19519 0.0277515 -3.00387e-20)
(1.10886 0.0493327 4.25709e-21)
(1.14162 0.0503152 7.51432e-20)
(1.18066 0.0316647 1.84018e-21)
(1.03755 0.0633114 -1.70444e-20)
(1.08634 0.0536827 -9.13988e-20)
(1.12105 0.0547018 3.86783e-20)
(1.1644 0.0356822 9.2161e-20)
(1.01096 0.0674701 7.11474e-20)
(1.06225 0.0579065 5.82807e-20)
(1.09876 0.0589589 -2.99798e-20)
(1.14636 0.0397762 -9.30816e-20)
(0.983049 0.0713477 -3.60773e-20)
(1.03659 0.0619621 1.59911e-21)
(1.07476 0.0630389 -4.97349e-20)
(1.12647 0.0439132 5.17659e-20)
(0.953896 0.0749042 -2.54739e-21)
(1.00944 0.065806 4.02972e-21)
(1.04908 0.0668926 -3.52025e-20)
(1.10471 0.0480543 7.34979e-21)
(0.923612 0.0781011 8.48018e-20)
(0.980874 0.0693938 -5.21126e-20)
(1.02179 0.07047 -8.35783e-21)
(1.08107 0.0521552 -1.71628e-20)
(0.892316 0.0809016 -1.59569e-20)
(0.950982 0.0726805 4.27853e-20)
(0.992973 0.0737216 6.19219e-20)
(1.05555 0.0561659 1.88168e-21)
(0.860146 0.0832718 -2.66626e-20)
(0.919885 0.0756214 3.90837e-20)
(0.962731 0.0765996 -3.35875e-20)
(1.02822 0.0600319 2.89609e-20)
(0.769543 0.0877653 -8.82295e-20)
(0.827255 0.0851809 2.9592e-20)
(0.887722 0.0781731 -4.39652e-20)
(0.931206 0.079059 -1.19583e-20)
(0.999135 0.0636943 -1.15618e-20)
(0.736447 0.0888039 1.20119e-20)
(0.793807 0.0866017 -3.33118e-20)
(0.854654 0.0802939 1.7504e-20)
(0.898554 0.0810589 2.4214e-20)
(0.968414 0.067091 -6.73359e-21)
(0.703228 0.0893348 3.14825e-20)
(0.759979 0.0875113 3.10822e-20)
(0.820857 0.0819451 -3.15451e-20)
(0.86496 0.0825629 6.902e-20)
(0.936198 0.070158 -3.78767e-20)
(0.670058 0.0893456 -6.49343e-20)
(0.72596 0.087891 3.58873e-20)
(0.786526 0.083091 -3.21232e-20)
(0.830624 0.0835405 -5.44322e-20)
(0.902664 0.0728303 3.78863e-20)
(0.637112 0.0888282 3.1455e-20)
(0.691942 0.087727 -8.69312e-21)
(0.75187 0.0837009 5.29591e-20)
(0.795767 0.0839666 3.21774e-20)
(0.868021 0.0750435 -2.80047e-20)
(0.604567 0.0877785 -1.89084e-21)
(0.658128 0.08701 -3.81026e-20)
(0.717111 0.0837486 -1.48653e-20)
(0.760626 0.083823 -1.46759e-20)
(0.832509 0.0767355 -5.77621e-21)
(0.572603 0.0861969 3.29614e-20)
(0.624724 0.0857361 9.13003e-21)
(0.682482 0.0832139 -4.80879e-20)
(0.725448 0.0830972 -3.62615e-21)
(0.796399 0.077848 3.13834e-20)
(0.541398 0.0840878 -3.91452e-20)
(0.591936 0.0839058 -2.65996e-20)
(0.648222 0.0820826 6.96363e-20)
(0.690491 0.0817834 -5.93782e-20)
(0.759986 0.078328 6.53309e-23)
(0.511131 0.08146 4.36725e-21)
(0.559973 0.0815248 2.53453e-20)
(0.614577 0.0803472 -5.83534e-20)
(0.656021 0.0798815 3.68873e-20)
(0.723587 0.0781294 -2.57096e-20)
(0.481974 0.0783262 3.75947e-21)
(0.529039 0.0786036 -1.81692e-21)
(0.581793 0.0780069 3.84145e-20)
(0.622305 0.0773972 -1.33234e-20)
(0.687533 0.0772149 3.79695e-20)
(0.454099 0.0747032 -4.76281e-21)
(0.499338 0.0751571 -1.41991e-20)
(0.550116 0.0750678 -1.68385e-20)
(0.589613 0.0743419 3.01472e-20)
(0.652169 0.0755569 -3.20453e-20)
(0.427668 0.0706114 6.77274e-20)
(0.471066 0.0712049 1.3615e-20)
(0.519788 0.071543 1.71532e-20)
(0.55821 0.0707319 -3.81022e-20)
(0.617844 0.0731391 2.22292e-20)
(0.402839 0.0660748 -7.32238e-20)
(0.444412 0.0667708 -1.16103e-21)
(0.491044 0.0674522 -1.54199e-20)
(0.528356 0.0665885 3.81391e-21)
(0.584907 0.0699574 -6.24155e-21)
(0.379759 0.0611208 5.13631e-20)
(0.419555 0.0618824 1.3309e-20)
(0.464111 0.0628214 -2.20041e-21)
(0.500305 0.0619377 3.90833e-20)
(0.553699 0.0660201 6.6061e-21)
(0.319194 0.0544909 3.3251e-20)
(0.358568 0.0557796 -2.92946e-20)
(0.396665 0.0565712 -3.55296e-20)
(0.439203 0.0576828 5.81171e-21)
(0.474297 0.0568102 8.49862e-21)
(0.524552 0.0613491 -2.79318e-20)
(0.301726 0.0488187 -2.5947e-20)
(0.339392 0.0500844 -1.33168e-20)
(0.375898 0.0508721 3.12212e-20)
(0.41652 0.0520741 -5.34487e-21)
(0.450557 0.0512411 -2.83031e-20)
(0.497779 0.0559792 2.05456e-20)
(0.286237 0.042874 4.58487e-20)
(0.322348 0.0440708 3.37141e-20)
(0.357399 0.0448232 -2.55071e-20)
(0.396247 0.0460382 1.40213e-20)
(0.429295 0.0452697 -8.83978e-21)
(0.473668 0.049958 -2.81229e-21)
(0.272807 0.0366901 -3.19441e-20)
(0.307541 0.0377769 -4.12589e-21)
(0.341295 0.0384653 3.78131e-21)
(0.378549 0.0396225 1.00383e-20)
(0.4107 0.0389397 1.72956e-20)
(0.452486 0.0433451 -5.26517e-21)
(0.261506 0.0303018 2.23077e-21)
(0.29506 0.0312423 -4.03569e-21)
(0.327699 0.0318416 4.41764e-21)
(0.36357 0.0328785 -1.31983e-20)
(0.394938 0.0322986 -4.90991e-21)
(0.434463 0.0362114 4.18899e-21)
(0.252393 0.0237447 -6.846e-21)
(0.284981 0.0245086 -6.1538e-21)
(0.316705 0.0249976 1.11969e-20)
(0.351436 0.0258612 1.53824e-21)
(0.382152 0.0253974 -5.84514e-21)
(0.4198 0.0286374 -9.38456e-21)
(0.245516 0.0170555 4.69869e-21)
(0.277368 0.0176187 7.10498e-21)
(0.308391 0.0179804 -6.35661e-21)
(0.342246 0.0186282 -9.43132e-21)
(0.372459 0.0182905 3.36519e-21)
(0.408658 0.0207122 1.07461e-20)
(0.240912 0.0102713 4.85651e-21)
(0.272266 0.0106164 -6.43698e-21)
(0.302816 0.0108384 3.20413e-21)
(0.336076 0.0112397 1.03806e-20)
(0.365947 0.0110345 -3.33703e-22)
(0.401161 0.0125311 -2.89499e-22)
(0.238603 0.00343012 9.01942e-22)
(0.269707 0.00354634 2.87178e-21)
(0.300018 0.00362125 -1.6012e-21)
(0.332978 0.00375714 -3.35326e-21)
(0.362676 0.00368842 -5.99272e-22)
(0.397391 0.00419464 -1.40906e-21)
(0.416614 -0.00375048 6.035e-22)
(0.422342 -0.00362205 -3.18633e-22)
(0.427906 -0.00350896 -4.06931e-24)
(0.433415 -0.00340615 4.8129e-23)
(0.438855 -0.00331161 -4.07715e-23)
(0.444224 -0.00322435 -1.73083e-22)
(0.449529 -0.00314338 1.26101e-22)
(0.454781 -0.00306778 2.96407e-22)
(0.459985 -0.00299677 -2.17147e-22)
(0.465144 -0.00292973 3.59238e-23)
(0.470265 -0.00286612 -5.67978e-23)
(0.475349 -0.00280549 1.58859e-22)
(0.4804 -0.00274745 -1.18165e-22)
(0.48542 -0.00269168 2.39112e-22)
(0.490411 -0.0026379 -2.91722e-22)
(0.495376 -0.00258588 6.68535e-23)
(0.500315 -0.00253543 1.60424e-22)
(0.505229 -0.00248637 -1.40329e-22)
(0.510119 -0.00243857 1.74627e-22)
(0.514987 -0.0023919 -2.36507e-22)
(0.519831 -0.00234626 1.26047e-23)
(0.524654 -0.00230157 1.80326e-22)
(0.529455 -0.00225775 -2.60242e-22)
(0.534233 -0.00221475 1.99813e-22)
(0.538991 -0.0021725 -1.78531e-22)
(0.543726 -0.00213097 1.14602e-22)
(0.548439 -0.00209011 7.9463e-23)
(0.553131 -0.00204991 -1.95347e-23)
(0.5578 -0.00201033 -1.85274e-22)
(0.562447 -0.00197136 1.60598e-22)
(0.567071 -0.00193296 1.85967e-23)
(0.571672 -0.00189515 -5.08947e-23)
(0.57625 -0.00185789 8.06225e-23)
(0.580804 -0.00182118 3.66124e-23)
(0.585335 -0.00178502 -1.61992e-22)
(0.589842 -0.0017494 7.45892e-24)
(0.594324 -0.00171431 7.93357e-23)
(0.598781 -0.00167975 4.09503e-23)
(0.603214 -0.00164572 -6.97609e-23)
(0.607621 -0.00161222 7.42307e-24)
(0.612003 -0.00157925 -7.74588e-23)
(0.616359 -0.00154681 1.59588e-22)
(0.620689 -0.00151489 -1.52482e-22)
(0.624993 -0.00148349 1.66529e-22)
(0.629271 -0.00145263 -9.02698e-23)
(0.633522 -0.00142229 -4.06305e-23)
(0.637747 -0.00139248 -4.17429e-24)
(0.641944 -0.00136319 6.39756e-25)
(0.646115 -0.00133443 5.54094e-23)
(0.650259 -0.0013062 -2.22773e-23)
(0.654376 -0.0012785 5.42959e-23)
(0.658466 -0.00125133 -3.07961e-23)
(0.662529 -0.00122468 -2.83679e-23)
(0.666565 -0.00119856 3.77603e-23)
(0.670574 -0.00117296 -3.42317e-23)
(0.674556 -0.00114789 1.38926e-23)
(0.678511 -0.00112334 -1.82375e-23)
(0.68244 -0.00109932 2.42934e-23)
(0.686343 -0.00107582 -4.70297e-23)
(0.69022 -0.00105283 1.53097e-24)
(0.694071 -0.00103036 4.29014e-23)
(0.697896 -0.00100841 -3.14451e-23)
(0.701696 -0.000986969 -4.96127e-24)
(0.705472 -0.000966041 9.33255e-24)
(0.709223 -0.000945623 1.10656e-23)
(0.71295 -0.000925714 -1.19292e-23)
(0.716655 -0.000906311 1.55502e-24)
(0.720336 -0.000887413 -1.31904e-23)
(0.723996 -0.000869019 -3.50443e-24)
(0.727634 -0.00085113 2.40724e-23)
(0.731251 -0.000833745 4.73455e-24)
(0.734849 -0.000816866 4.44771e-25)
(0.738429 -0.000800493 -1.51706e-23)
(0.74199 -0.000784629 2.14743e-24)
(0.745536 -0.000769279 -2.29403e-24)
(0.749066 -0.000754448 6.86645e-24)
(0.752582 -0.000740142 -3.20197e-24)
(0.756085 -0.000726368 5.69109e-24)
(0.759579 -0.000713138 -1.45319e-24)
(0.763063 -0.000700462 8.84452e-24)
(0.766541 -0.000688354 9.1807e-24)
(0.770014 -0.000676829 -5.29511e-24)
(0.773485 -0.000665905 4.85214e-24)
(0.776956 -0.0006556 -3.49182e-24)
(0.780431 -0.000645935 5.83961e-24)
(0.783913 -0.00063693 -7.17566e-24)
(0.787405 -0.000628608 -1.94757e-24)
(0.790911 -0.000620988 -4.07526e-25)
(0.794435 -0.000614092 9.69369e-25)
(0.797982 -0.000607926 -2.24252e-25)
(0.801553 -0.000602518 2.5326e-24)
(0.805162 -0.000597825 1.87914e-25)
(0.808794 -0.000593933 -9.61221e-25)
(0.812499 -0.000590571 -2.05478e-26)
(0.816178 -0.000588253 -1.24201e-24)
(0.820074 -0.000585528 -6.18582e-26)
(0.823647 -0.000585488 -7.59482e-25)
(0.828125 -0.000580299 2.75841e-25)
(0.830791 -0.000587472 3.88948e-25)
(0.837582 -0.000563046 1.21189e-24)
(0.420251 -0.0112087 3.24786e-22)
(0.425903 -0.0108267 -1.30353e-22)
(0.431392 -0.0104903 -3.42729e-23)
(0.436835 -0.0101841 7.24872e-22)
(0.442212 -0.00990245 4.82584e-22)
(0.44752 -0.00964237 -1.45362e-21)
(0.452767 -0.00940093 1.54123e-22)
(0.457962 -0.00917542 2.08175e-21)
(0.463111 -0.00896357 -1.23349e-21)
(0.468217 -0.00876351 4.26395e-22)
(0.473285 -0.00857364 -4.04716e-22)
(0.478318 -0.00839263 1.15475e-22)
(0.483319 -0.00821934 2.84851e-22)
(0.48829 -0.0080528 -6.41942e-22)
(0.493233 -0.0078922 5.10499e-22)
(0.49815 -0.00773685 1.30798e-22)
(0.503042 -0.00758615 -1.60922e-22)
(0.50791 -0.00743961 -8.10316e-22)
(0.512755 -0.00729682 1.08556e-21)
(0.517578 -0.0071574 -6.63855e-22)
(0.522379 -0.00702105 5.44409e-22)
(0.527158 -0.00688753 -4.38132e-22)
(0.531915 -0.0067566 1.9016e-22)
(0.536652 -0.0066281 -2.44357e-22)
(0.541367 -0.00650185 1.45075e-22)
(0.546061 -0.00637774 -6.13464e-23)
(0.550733 -0.00625565 1.63397e-23)
(0.555384 -0.00613549 -1.08134e-22)
(0.560013 -0.00601719 2.25178e-22)
(0.564621 -0.00590068 5.56449e-23)
(0.569206 -0.00578591 -1.39103e-22)
(0.573769 -0.00567284 1.87927e-22)
(0.578309 -0.00556144 -8.89107e-23)
(0.582826 -0.00545167 -7.82293e-23)
(0.58732 -0.00534353 -1.78071e-23)
(0.59179 -0.00523698 4.80523e-23)
(0.596237 -0.00513202 -9.81048e-23)
(0.600659 -0.00502863 -1.31579e-22)
(0.605057 -0.00492682 -6.43978e-23)
(0.60943 -0.00482657 -8.61794e-23)
(0.613778 -0.00472788 1.15915e-22)
(0.6181 -0.00463075 7.02999e-23)
(0.622398 -0.00453518 -2.04923e-22)
(0.626669 -0.00444116 1.87762e-22)
(0.630915 -0.00434871 5.22227e-23)
(0.635135 -0.00425781 -1.18014e-22)
(0.639328 -0.00416848 4.90976e-23)
(0.643495 -0.0040807 1.89553e-22)
(0.647636 -0.00399448 -5.77616e-23)
(0.651751 -0.00390983 3.46655e-23)
(0.655838 -0.00382673 -1.27379e-22)
(0.6599 -0.00374519 1.29357e-22)
(0.663934 -0.00366522 -6.13198e-23)
(0.667942 -0.0035868 -5.60969e-23)
(0.671924 -0.00350993 2.55583e-24)
(0.675879 -0.00343462 6.27545e-25)
(0.679808 -0.00336086 -2.99395e-23)
(0.683711 -0.00328865 1.0127e-22)
(0.687589 -0.00321799 -2.52648e-23)
(0.69144 -0.00314887 -8.39339e-23)
(0.695266 -0.00308129 1.30426e-23)
(0.699067 -0.00301524 1.199e-22)
(0.702844 -0.00295073 4.56672e-24)
(0.706596 -0.00288775 -3.74321e-23)
(0.710324 -0.0028263 -5.64289e-23)
(0.714029 -0.00276638 1.28883e-23)
(0.717711 -0.00270799 -3.42921e-23)
(0.72137 -0.00265113 2.2433e-23)
(0.725008 -0.0025958 1.77037e-23)
(0.728625 -0.00254201 -3.38299e-23)
(0.732222 -0.00248976 1.92536e-23)
(0.735799 -0.00243907 -3.68238e-24)
(0.739359 -0.00238994 -1.72046e-23)
(0.7429 -0.00234239 1.72617e-24)
(0.746426 -0.00229644 2.15259e-23)
(0.749937 -0.0022521 9.41952e-24)
(0.753434 -0.00220942 2.11861e-23)
(0.75692 -0.00216841 -1.99445e-23)
(0.760395 -0.00212912 -2.54845e-24)
(0.763861 -0.00209159 -6.96445e-24)
(0.767321 -0.00205586 1.30766e-23)
(0.770777 -0.00202198 -2.4295e-23)
(0.774231 -0.00199001 6.06305e-24)
(0.777685 -0.00196001 1.64183e-23)
(0.781144 -0.00193205 -1.99983e-23)
(0.784609 -0.00190618 2.04747e-24)
(0.788085 -0.00188247 8.8737e-24)
(0.791575 -0.00186098 3.72219e-24)
(0.795083 -0.00184176 4.85169e-25)
(0.798614 -0.00182484 -1.08781e-24)
(0.80217 -0.00181027 1.02064e-24)
(0.805764 -0.00179792 4.39808e-25)
(0.809381 -0.00178803 1.36303e-24)
(0.81307 -0.00177977 -1.49739e-24)
(0.816734 -0.00177465 3.28046e-25)
(0.820615 -0.00176831 9.53249e-25)
(0.824174 -0.00176999 -5.1482e-26)
(0.828634 -0.00175613 -1.8144e-25)
(0.83129 -0.0017793 -4.33409e-25)
(0.838056 -0.00170747 -4.35022e-24)
(0.427484 -0.0185371 5.18067e-22)
(0.432988 -0.0179112 1.53014e-21)
(0.438329 -0.0173596 -1.70588e-21)
(0.443639 -0.0168568 1.11879e-21)
(0.448891 -0.0163937 -1.15893e-21)
(0.454078 -0.0159657 -2.12576e-22)
(0.459209 -0.015568 2.238e-23)
(0.464291 -0.0151964 1.02088e-21)
(0.469331 -0.0148471 -2.62328e-22)
(0.474331 -0.014517 2.7645e-22)
(0.479295 -0.0142036 -5.19199e-22)
(0.484227 -0.0139048 2.94208e-22)
(0.489128 -0.0136186 -5.43311e-22)
(0.494002 -0.0133435 -4.17682e-22)
(0.498849 -0.0130781 1.06799e-21)
(0.503672 -0.0128214 2.10092e-22)
(0.508471 -0.0125723 -1.0623e-21)
(0.513247 -0.0123301 1.32305e-21)
(0.518002 -0.012094 -1.61002e-21)
(0.522736 -0.0118635 6.89827e-22)
(0.527449 -0.0116381 7.22094e-22)
(0.532141 -0.0114173 -6.93808e-22)
(0.536813 -0.0112008 1.95056e-22)
(0.541465 -0.0109882 1.93255e-22)
(0.546097 -0.0107794 -3.6473e-22)
(0.550708 -0.0105741 1.78849e-22)
(0.555299 -0.0103721 3.73422e-23)
(0.55987 -0.0101733 -4.25552e-23)
(0.56442 -0.00997761 4.44389e-23)
(0.56895 -0.00978484 3.70049e-22)
(0.573458 -0.00959493 -3.20587e-22)
(0.577944 -0.00940782 -2.09334e-22)
(0.582409 -0.00922346 -2.66187e-22)
(0.586852 -0.00904179 7.21133e-22)
(0.591273 -0.00886279 -1.13206e-22)
(0.595671 -0.00868642 -5.63433e-23)
(0.600046 -0.00851267 -1.44663e-22)
(0.604398 -0.00834151 -8.90537e-23)
(0.608727 -0.00817294 4.34755e-22)
(0.613031 -0.00800694 -2.50832e-22)
(0.617312 -0.00784352 1.26486e-22)
(0.621568 -0.00768267 1.28297e-22)
(0.6258 -0.00752438 -9.28798e-23)
(0.630008 -0.00736866 -2.00724e-22)
(0.63419 -0.00721551 7.91023e-23)
(0.638347 -0.00706493 1.41156e-22)
(0.642479 -0.00691691 9.19967e-23)
(0.646585 -0.00677147 -3.27042e-22)
(0.650666 -0.0066286 1.76965e-22)
(0.654722 -0.00648831 -2.23883e-22)
(0.658752 -0.00635058 3.35464e-22)
(0.662756 -0.00621543 -1.5813e-22)
(0.666735 -0.00608285 -4.56155e-23)
(0.670688 -0.00595284 1.19884e-22)
(0.674615 -0.0058254 4.14415e-23)
(0.678517 -0.00570052 -1.29516e-22)
(0.682393 -0.0055782 -2.34836e-22)
(0.686245 -0.00545844 1.9278e-23)
(0.690071 -0.00534124 1.99318e-22)
(0.693873 -0.00522658 -1.66335e-22)
(0.69765 -0.00511447 -3.85291e-23)
(0.701402 -0.0050049 4.82788e-23)
(0.705131 -0.00489787 5.30901e-23)
(0.708836 -0.00479337 1.36338e-23)
(0.712519 -0.00469141 6.54641e-23)
(0.716178 -0.00459198 6.55085e-24)
(0.719816 -0.00449509 -7.55175e-23)
(0.723432 -0.00440074 -1.09587e-23)
(0.727027 -0.00430893 -2.2939e-23)
(0.730601 -0.00421968 -3.44598e-23)
(0.734157 -0.004133 4.47027e-23)
(0.737694 -0.0040489 2.79505e-23)
(0.741213 -0.00396741 -5.07322e-23)
(0.744715 -0.00388856 6.73045e-23)
(0.748202 -0.00381238 -4.9159e-23)
(0.751675 -0.00373891 3.41469e-23)
(0.755135 -0.00366819 -2.21132e-23)
(0.758584 -0.00360029 2.49559e-23)
(0.762022 -0.00353525 2.94296e-23)
(0.765453 -0.00347317 -2.38688e-23)
(0.768878 -0.00341411 -5.57491e-24)
(0.772299 -0.00335816 -9.37647e-25)
(0.775719 -0.00330541 2.21496e-23)
(0.77914 -0.00325598 -1.919e-23)
(0.782566 -0.00320996 2.9218e-23)
(0.785998 -0.00316745 -1.06735e-23)
(0.789442 -0.00312858 1.1387e-23)
(0.7929 -0.00309342 -1.27467e-23)
(0.796377 -0.00306207 -7.37601e-25)
(0.799877 -0.00303456 -1.03966e-24)
(0.803402 -0.003011 -1.57909e-23)
(0.806964 -0.00299115 1.25873e-24)
(0.810551 -0.00297541 -8.81422e-24)
(0.81421 -0.00296238 -8.41147e-25)
(0.817844 -0.0029546 2.11788e-24)
(0.821694 -0.00294474 -3.98567e-24)
(0.825224 -0.00294826 3.40596e-25)
(0.829651 -0.00292587 -6.66565e-25)
(0.832285 -0.0029651 2.40265e-25)
(0.839002 -0.00284638 3.66911e-24)
(0.438234 -0.0256513 -1.74478e-21)
(0.443518 -0.0247972 2.46081e-21)
(0.448641 -0.0240441 -6.51968e-22)
(0.453754 -0.0233556 1.29037e-21)
(0.458821 -0.0227203 -3.39591e-21)
(0.463829 -0.0221324 1.67673e-21)
(0.468787 -0.0215857 1.47303e-21)
(0.473703 -0.0210741 9.9665e-22)
(0.478581 -0.0205929 -2.04062e-21)
(0.483423 -0.0201378 -1.35897e-21)
(0.488234 -0.0197055 1.53348e-21)
(0.493015 -0.0192931 9.45637e-22)
(0.497769 -0.0188979 -1.93895e-21)
(0.502498 -0.0185178 9.02787e-22)
(0.507203 -0.0181512 -4.46766e-22)
(0.511885 -0.0177963 6.29993e-23)
(0.516546 -0.0174519 8.14957e-23)
(0.521187 -0.017117 1.25862e-21)
(0.525808 -0.0167905 -1.03211e-21)
(0.53041 -0.0164716 1.48598e-21)
(0.534992 -0.0161597 -1.28764e-21)
(0.539556 -0.0158542 2.43691e-22)
(0.544101 -0.0155546 -2.2079e-23)
(0.548628 -0.0152604 -2.83728e-23)
(0.553136 -0.0149714 -1.48438e-22)
(0.557625 -0.0146872 -1.6562e-22)
(0.562096 -0.0144076 4.06905e-22)
(0.566548 -0.0141324 -1.54911e-21)
(0.57098 -0.0138613 8.73661e-22)
(0.575393 -0.0135944 -6.2856e-22)
(0.579787 -0.0133314 8.04204e-22)
(0.584161 -0.0130722 3.2548e-22)
(0.588514 -0.0128169 -1.10133e-21)
(0.592847 -0.0125652 5.19415e-22)
(0.597159 -0.0123172 1.7537e-22)
(0.60145 -0.0120728 -2.30364e-22)
(0.605719 -0.0118321 7.38175e-22)
(0.609967 -0.0115949 -5.25914e-22)
(0.614193 -0.0113612 -1.87004e-22)
(0.618396 -0.0111312 2.85665e-22)
(0.622577 -0.0109046 -2.61975e-22)
(0.626735 -0.0106816 5.98591e-22)
(0.63087 -0.0104622 2.21373e-23)
(0.634981 -0.0102463 -2.60094e-22)
(0.639069 -0.0100339 -2.02929e-24)
(0.643133 -0.00982507 -4.09124e-22)
(0.647174 -0.00961978 2.31661e-22)
(0.65119 -0.00941804 -1.33398e-22)
(0.655183 -0.00921985 -1.20323e-23)
(0.659151 -0.00902522 2.20527e-22)
(0.663094 -0.00883413 -2.04004e-22)
(0.667014 -0.0086466 1.32804e-22)
(0.670909 -0.00846262 7.7934e-23)
(0.67478 -0.00828218 -2.12479e-22)
(0.678627 -0.0081053 1.84338e-22)
(0.682449 -0.00793196 6.99324e-23)
(0.686248 -0.00776216 -1.51121e-22)
(0.690022 -0.0075959 6.35247e-24)
(0.693773 -0.00743317 1.8127e-22)
(0.6975 -0.00727397 -2.60078e-22)
(0.701204 -0.00711829 1.5856e-23)
(0.704885 -0.00696613 2.09138e-22)
(0.708543 -0.00681748 1.54722e-23)
(0.712179 -0.00667235 1.64216e-24)
(0.715793 -0.00653073 -5.65536e-23)
(0.719385 -0.00639262 -4.75779e-24)
(0.722956 -0.00625803 5.91504e-24)
(0.726507 -0.00612697 4.09598e-23)
(0.730039 -0.00599944 1.20812e-23)
(0.733551 -0.00587546 8.55957e-23)
(0.737044 -0.00575505 -9.18163e-23)
(0.740521 -0.00563824 -1.53009e-23)
(0.74398 -0.00552506 -3.11196e-23)
(0.747424 -0.00541554 7.97824e-23)
(0.750854 -0.00530975 -3.61896e-23)
(0.75427 -0.00520773 -6.29973e-23)
(0.757674 -0.00510955 3.10122e-23)
(0.761068 -0.00501529 -6.63118e-23)
(0.764452 -0.00492505 4.32928e-23)
(0.76783 -0.00483892 8.1963e-24)
(0.771203 -0.00475702 -3.7128e-23)
(0.774573 -0.00467946 1.5333e-23)
(0.777942 -0.00460638 -2.60252e-23)
(0.781313 -0.00453793 1.06931e-23)
(0.784689 -0.00447425 -3.81178e-23)
(0.788073 -0.00441549 5.58449e-24)
(0.791469 -0.00436181 -1.1672e-23)
(0.794879 -0.00431332 2.34934e-23)
(0.798309 -0.00427016 -1.44045e-23)
(0.801762 -0.00423236 1.37188e-24)
(0.805241 -0.00420009 3.41109e-24)
(0.808758 -0.00417299 1.1656e-24)
(0.812299 -0.00415164 6.25922e-25)
(0.815913 -0.00413406 -4.32396e-24)
(0.819502 -0.00412382 -1.92705e-24)
(0.823306 -0.00411065 2.99475e-24)
(0.826794 -0.00411619 -1.63429e-24)
(0.831171 -0.00408548 1.22633e-24)
(0.833773 -0.00414086 -9.4069e-25)
(0.840418 -0.00397609 7.63386e-24)
(0.452384 -0.0324706 3.6685e-22)
(0.457381 -0.0314096 8.81778e-22)
(0.462218 -0.0304734 2.58525e-21)
(0.467075 -0.0296142 -3.33842e-21)
(0.471898 -0.0288194 1.54925e-21)
(0.476672 -0.0280828 -3.64069e-22)
(0.481404 -0.0273967 2.33483e-22)
(0.486101 -0.0267538 -8.1291e-22)
(0.490766 -0.0261483 6.33064e-22)
(0.495402 -0.0255753 1.35281e-21)
(0.50001 -0.0250304 -5.9834e-22)
(0.504594 -0.0245101 -8.7342e-23)
(0.509154 -0.0240113 -2.83327e-21)
(0.513693 -0.0235314 6.72164e-22)
(0.518211 -0.0230681 1.22426e-21)
(0.52271 -0.0226196 3.73562e-22)
(0.52719 -0.0221843 -8.12084e-22)
(0.531652 -0.0217607 -1.03343e-21)
(0.536097 -0.0213477 1.23866e-21)
(0.540525 -0.0209442 8.31208e-22)
(0.544937 -0.0205496 -1.88212e-21)
(0.549332 -0.0201629 1.81842e-21)
(0.55371 -0.0197836 6.47025e-22)
(0.558072 -0.0194112 -1.60918e-21)
(0.562418 -0.0190452 1.0795e-21)
(0.566747 -0.0186853 3.96339e-22)
(0.571059 -0.0183311 -3.09501e-22)
(0.575355 -0.0179825 -1.80496e-21)
(0.579633 -0.0176391 1.42035e-22)
(0.583894 -0.0173009 8.74846e-22)
(0.588137 -0.0169676 1.61702e-24)
(0.592362 -0.0166392 1.0061e-21)
(0.596569 -0.0163155 -1.65514e-21)
(0.600758 -0.0159964 4.87157e-22)
(0.604927 -0.015682 7.44599e-22)
(0.609077 -0.0153722 2.28633e-22)
(0.613208 -0.0150668 -1.77104e-21)
(0.617319 -0.014766 9.80954e-22)
(0.621409 -0.0144697 4.07026e-22)
(0.625479 -0.0141778 -1.33713e-21)
(0.629529 -0.0138904 5.70554e-22)
(0.633557 -0.0136074 -1.13365e-23)
(0.637564 -0.0133289 2.55128e-22)
(0.64155 -0.0130549 3.91928e-22)
(0.645514 -0.0127853 -7.6362e-22)
(0.649456 -0.0125202 2.04957e-22)
(0.653376 -0.0122596 -2.70986e-22)
(0.657274 -0.0120035 2.72746e-22)
(0.66115 -0.0117518 -6.18541e-23)
(0.665003 -0.0115046 2.70928e-22)
(0.668834 -0.0112619 -2.15807e-22)
(0.672642 -0.0110237 -1.10998e-23)
(0.676427 -0.01079 -1.87151e-23)
(0.68019 -0.0105607 3.59452e-22)
(0.683931 -0.010336 -8.77826e-23)
(0.687649 -0.0101157 -2.121e-22)
(0.691344 -0.00989989 2.20911e-22)
(0.695018 -0.00968857 -1.79134e-22)
(0.698669 -0.00948172 1.09617e-22)
(0.702298 -0.00927934 8.49059e-23)
(0.705906 -0.00908142 -1.08254e-22)
(0.709492 -0.00888796 -3.82857e-23)
(0.713057 -0.00869896 2.85225e-22)
(0.716601 -0.00851441 -2.73204e-22)
(0.720125 -0.00833431 2.43071e-22)
(0.723629 -0.00815867 -7.77887e-23)
(0.727113 -0.0079875 -9.16713e-23)
(0.730578 -0.0078208 -1.04177e-22)
(0.734026 -0.00765859 9.63159e-23)
(0.737455 -0.00750089 8.8099e-23)
(0.740867 -0.00734773 -1.36097e-22)
(0.744264 -0.00719915 3.67121e-23)
(0.747645 -0.00705518 -2.2152e-24)
(0.751011 -0.00691589 7.80831e-24)
(0.754365 -0.00678133 4.39936e-23)
(0.757706 -0.00665158 -6.75006e-23)
(0.761037 -0.00652674 9.63877e-23)
(0.764358 -0.00640689 -1.4063e-22)
(0.767672 -0.00629217 7.17656e-23)
(0.77098 -0.0061827 -3.19554e-23)
(0.774283 -0.00607862 -1.64315e-24)
(0.777585 -0.00598009 -6.47941e-25)
(0.780887 -0.0058873 2.8698e-24)
(0.784193 -0.00580042 2.4552e-23)
(0.787504 -0.00571964 -1.96375e-23)
(0.790823 -0.00564515 -4.07986e-24)
(0.794155 -0.00557714 2.14863e-23)
(0.797503 -0.00551579 -2.92447e-23)
(0.800871 -0.00546126 6.27256e-24)
(0.804263 -0.00541358 -1.42458e-24)