0 	0.534376 	0 	-0.592144
0 	0.60573 	1.38778e-18 	-0.495245
0 	0.682485 	1.38778e-18 	-0.472068
0 	0.765049 	-1.73472e-18 	-0.408026
0 	0.853863 	-3.46945e-18 	-0.366899
0 	0.949399 	-2.08167e-18 	-0.312729
