/*--------------------------------*- C++ -*----------------------------------*\
  =========                 |
  \\      /  F ield         | OpenFOAM: The Open Source CFD Toolbox
   \\    /   O peration     | Website:  https://openfoam.org
    \\  /    A nd           | Version:  7
     \\/     M anipulation  |
\*---------------------------------------------------------------------------*/
FoamFile
{
    version     2.0;
    format      ascii;
    class       volVectorField;
    location    "30";
    object      U;
}
// * * * * * * * * * * * * * * * * * * * * * * * * * * * * * * * * * * * * * //

dimensions      [0 1 -1 0 0 0 0];

internalField   nonuniform List<vector> 
656
(
(0.0372874 -0.00980839 1.34473e-20)
(0.0387128 -0.0293435 2.16954e-20)
(0.0415481 -0.0486411 1.44801e-19)
(0.0457627 -0.0675489 -1.41177e-19)
(0.0513114 -0.0859183 5.97246e-19)
(0.0581349 -0.103606 -1.02836e-18)
(0.0661603 -0.120475 3.18922e-19)
(0.0753022 -0.136397 3.56452e-19)
(0.0854633 -0.151253 -2.24661e-19)
(0.23857 -0.263947 1.28667e-19)
(0.0965354 -0.164935 3.23126e-19)
(0.256904 -0.288943 9.16054e-20)
(0.108401 -0.177344 -5.1472e-20)
(0.276671 -0.312035 6.75145e-19)
(0.120934 -0.188397 6.62054e-19)
(0.297693 -0.333082 -9.85167e-19)
(0.134001 -0.198022 -5.97058e-19)
(0.31978 -0.351958 1.71042e-19)
(0.147465 -0.206164 1.9406e-19)
(0.34273 -0.368556 6.58601e-19)
(0.161182 -0.212779 -4.1057e-19)
(0.366335 -0.382785 3.162e-20)
(0.175007 -0.217839 -2.16165e-19)
(0.390377 -0.394576 -8.63699e-20)
(0.188795 -0.221333 -4.43605e-19)
(0.414636 -0.403875 8.94108e-20)
(0.585718 -0.452417 3.37703e-19)
(0.202403 -0.223265 6.99031e-19)
(0.438887 -0.410654 -4.48067e-19)
(0.612122 -0.463201 2.51576e-19)
(0.21569 -0.223658 5.06816e-20)
(0.462907 -0.414904 2.02265e-19)
(0.638576 -0.471497 -6.08095e-19)
(0.228509 -0.222535 -1.27879e-19)
(0.486467 -0.416629 -7.00638e-20)
(0.664862 -0.47728 4.00676e-20)
(0.240667 -0.219886 7.23823e-20)
(0.509315 -0.415834 4.79663e-20)
(0.690746 -0.480532 3.5145e-19)
(0.79939 -0.472798 -6.68851e-20)
(0.252025 -0.215781 -3.07803e-19)
(0.531221 -0.412582 1.1343e-19)
(0.716004 -0.481271 -1.41363e-19)
(0.824992 -0.476758 -3.60556e-20)
(0.262519 -0.210351 2.06638e-19)
(0.551999 -0.406975 -1.61602e-19)
(0.740424 -0.479537 8.48317e-20)
(0.850145 -0.478515 -1.80613e-19)
(0.272053 -0.203693 4.20298e-20)
(0.571452 -0.399108 8.62791e-20)
(0.763793 -0.475379 4.24688e-20)
(0.874657 -0.478081 3.64964e-19)
(0.940629 -0.440177 -4.60198e-20)
(0.280524 -0.195902 -7.75827e-20)
(0.589392 -0.389092 -7.3859e-21)
(0.785901 -0.468863 -2.64273e-20)
(0.898334 -0.475479 -5.15e-20)
(0.963593 -0.440784 9.57824e-20)
(0.287847 -0.187083 1.69025e-20)
(0.605639 -0.377053 -1.53236e-20)
(0.806542 -0.46007 -3.37228e-20)
(0.920982 -0.470746 -5.04084e-21)
(0.98597 -0.439607 -2.52436e-19)
(0.293947 -0.17735 -6.8052e-20)
(0.620034 -0.363136 -3.636e-20)
(0.825522 -0.449096 2.97721e-20)
(0.942409 -0.463931 1.88611e-20)
(1.0076 -0.436664 1.64734e-19)
(1.04089 -0.389736 -8.06812e-20)
(0.298766 -0.166825 -1.36107e-19)
(0.632431 -0.347501 5.41524e-21)
(0.842654 -0.436058 -5.2991e-20)
(0.962427 -0.455096 1.01212e-20)
(1.02831 -0.431976 4.47791e-20)
(1.06095 -0.3879 1.93972e-19)
(0.302261 -0.155635 4.12002e-19)
(0.642705 -0.33032 1.51083e-19)
(0.857764 -0.421082 5.42356e-20)
(0.980851 -0.444315 -6.38366e-20)
(1.04795 -0.425577 -4.28321e-20)
(1.08036 -0.384665 -6.14059e-20)
(1.0952 -0.336 4.66519e-20)
(0.304403 -0.143911 -3.14301e-19)
(0.650751 -0.311777 -3.10294e-19)
(0.87069 -0.40431 -1.30574e-19)
(0.997502 -0.431674 2.52411e-20)
(1.06635 -0.417507 2.37541e-22)
(1.09898 -0.380048 2.89623e-20)
(1.11291 -0.333673 -3.1796e-21)
(1.11802 -0.287108 2.12743e-20)
(0.305179 -0.131786 -1.12585e-19)
(0.656481 -0.292066 -1.7478e-20)
(0.881287 -0.385899 3.25279e-19)
(1.01221 -0.417274 -1.5818e-20)
(1.08334 -0.407815 1.20082e-20)
(1.11668 -0.374068 -2.00893e-20)
(1.13006 -0.330259 8.894e-21)
(1.13393 -0.285233 8.1842e-20)
(1.13454 -0.242809 -2.43842e-20)
(0.304589 -0.119392 1.26973e-19)
(0.659832 -0.271388 2.26862e-19)
(0.889428 -0.366019 -3.4859e-19)
(1.02481 -0.401224 1.49284e-19)
(1.09876 -0.396559 -8.22048e-21)
(1.13332 -0.366751 -3.56886e-21)
(1.14655 -0.325768 -2.91277e-21)
(1.14945 -0.282506 3.42628e-20)
(1.14864 -0.241096 -4.47478e-20)
(1.14559 -0.206021 -5.66086e-20)
(0.30265 -0.106861 1.29874e-19)
(0.660762 -0.249949 5.74849e-20)
(0.895002 -0.344847 1.52656e-19)
(1.03514 -0.383648 -1.56365e-19)
(1.11245 -0.383804 -5.69304e-20)
(1.14875 -0.358128 -3.23835e-20)
(1.16225 -0.320214 1.60881e-20)
(1.16448 -0.278936 -4.89938e-20)
(1.16244 -0.238724 1.07685e-20)
(1.15819 -0.204241 8.64848e-20)
(0.299392 -0.0943221 -1.82101e-19)
(0.659256 -0.227961 1.44456e-20)
(0.897918 -0.322574 -7.1268e-20)
(1.04308 -0.364679 4.27267e-20)
(1.12425 -0.369628 1.88767e-19)
(1.16283 -0.348234 7.08432e-20)
(1.17707 -0.313611 -8.06555e-21)
(1.17895 -0.274531 1.32704e-20)
(1.17589 -0.235702 -3.91478e-20)
(1.17058 -0.201911 -1.80495e-20)
(0.294861 -0.0818997 -1.82357e-19)
(0.655319 -0.205634 1.45518e-19)
(0.898109 -0.299396 -1.44785e-19)
(1.04847 -0.344461 3.62871e-20)
(1.13401 -0.354114 -4.88219e-20)
(1.17542 -0.337111 3.09486e-21)
(1.19087 -0.305979 3.1254e-20)
(1.19277 -0.269301 -7.23775e-21)
(1.18893 -0.232039 6.776e-21)
(1.18271 -0.199044 -7.48306e-21)
(0.289114 -0.0697122 2.67402e-19)
(0.648981 -0.183178 -2.23365e-19)
(0.895527 -0.275516 3.03995e-20)
(1.05122 -0.323149 1.32197e-20)
(1.14156 -0.337356 -5.5924e-21)
(1.18635 -0.324806 1.87418e-20)
(1.20354 -0.297337 1.25631e-20)
(1.20585 -0.263255 1.03716e-20)
(1.20149 -0.227743 -1.67684e-22)
(1.19455 -0.195656 1.74958e-21)
(0.282221 -0.0578709 1.15169e-19)
(0.640297 -0.160801 9.93023e-20)
(0.89015 -0.251143 1.00676e-19)
(1.05123 -0.300906 -1.5098e-19)
(1.14678 -0.319457 -1.12755e-19)
(1.19549 -0.311372 2.17576e-20)
(1.21493 -0.287709 -4.60901e-20)
(1.21807 -0.256402 -1.76509e-20)
(1.21351 -0.222825 3.39371e-21)
(1.20603 -0.191758 -7.91876e-22)
(0.274264 -0.0464786 -1.08856e-19)
(0.629344 -0.138703 7.30254e-20)
(0.881981 -0.226487 6.00543e-20)
(1.04841 -0.277903 1.24505e-19)
(1.14953 -0.30053 3.88196e-20)
(1.20267 -0.296871 -5.87969e-20)
(1.22491 -0.277121 -3.41237e-21)
(1.22935 -0.248753 -4.63538e-21)
(1.22492 -0.217291 -9.42703e-21)
(1.2171 -0.187358 -4.07328e-22)
(0.265337 -0.0356288 6.4336e-21)
(0.616224 -0.117074 -1.1766e-19)
(0.871049 -0.201758 -9.39723e-20)
(1.04271 -0.25432 -4.19769e-20)
(1.14967 -0.280694 -1.74721e-20)
(1.20775 -0.281368 6.72299e-21)
(1.23334 -0.265602 1.149e-20)
(1.23955 -0.240322 1.34066e-20)
(1.23563 -0.211146 1.15226e-21)
(1.22769 -0.182463 8.51244e-22)
(0.255531 -0.0254036 5.95763e-21)
(0.601051 -0.0960974 -1.0136e-20)
(0.857405 -0.177166 4.42482e-20)
(1.03408 -0.230341 3.0935e-20)
(1.1471 -0.260081 1.21033e-20)
(1.21057 -0.264939 -5.3711e-21)
(1.24005 -0.253187 -1.20907e-20)
(1.24855 -0.231117 4.67822e-24)
(1.24553 -0.204394 3.77929e-21)
(1.23774 -0.177078 -1.98766e-21)
(0.244903 -0.0158756 7.95446e-21)
(0.583933 -0.0759413 -9.19944e-21)
(0.841109 -0.152914 4.54901e-20)
(1.02251 -0.206154 3.70349e-20)
(1.14171 -0.238829 8.71783e-21)
(1.21098 -0.247667 -5.67466e-21)
(1.2449 -0.239914 -1.69696e-20)
(1.2562 -0.221153 3.9171e-21)
(1.25453 -0.197036 3.95607e-21)
(1.24717 -0.171204 -2.77542e-21)
(0.233569 -0.00711133 1.34749e-20)
(0.565035 -0.056773 -1.42824e-19)
(0.822273 -0.129211 -9.06914e-20)
(1.00802 -0.181957 -5.57648e-20)
(1.13343 -0.217089 -3.21304e-20)
(1.20883 -0.229645 1.10774e-20)
(1.24771 -0.225828 1.5227e-20)
(1.26237 -0.210443 2.37149e-20)
(1.2625 -0.189075 1.3996e-21)
(1.25591 -0.164838 4.66275e-21)
(0.221691 0.000841289 -1.1941e-19)
(0.544558 -0.0387319 8.45116e-20)
(0.801041 -0.106248 6.23719e-20)
(0.990637 -0.157946 1.72985e-19)
(1.12219 -0.195018 4.97086e-20)
(1.20401 -0.210974 -1.02843e-19)
(1.24832 -0.210981 -9.37941e-21)
(1.26687 -0.199004 -4.43338e-21)
(1.26932 -0.180513 -2.61666e-20)
(1.26384 -0.157974 -9.0127e-22)
(0.209392 0.00794853 1.16662e-19)
(0.522694 -0.0219364 1.44155e-19)
(0.777572 -0.0842032 1.45831e-19)
(0.970446 -0.134312 -2.15131e-19)
(1.10796 -0.172778 -1.5404e-19)
(1.19637 -0.191768 -2.97484e-20)
(1.24656 -0.195432 -1.02249e-19)
(1.26954 -0.186858 -6.64367e-20)
(1.27483 -0.171349 1.02882e-20)
(1.27086 -0.150601 1.01895e-20)
(0.196787 0.0141885 3.90512e-19)
(0.499637 -0.00648633 -3.71422e-19)
(0.752042 -0.0632398 1.02311e-19)
(0.947539 -0.111243 1.53975e-20)
(1.09072 -0.150539 -1.63625e-20)
(1.18581 -0.172146 -6.11142e-21)
(1.24226 -0.179249 -8.58242e-21)
(1.27019 -0.17403 4.39596e-20)
(1.27886 -0.161584 -4.25702e-20)
(1.27684 -0.142704 -1.33303e-20)
(0.183987 0.0195518 -2.79226e-19)
(0.475592 0.0075394 2.08194e-19)
(0.72465 -0.0435057 -2.46309e-19)
(0.922041 -0.0889202 1.20371e-19)
(1.07049 -0.128471 -1.75892e-19)
(1.17224 -0.15224 -2.21051e-20)
(1.23526 -0.162511 6.62482e-20)
(1.26863 -0.160552 -6.61139e-20)
(1.28124 -0.151223 -2.36325e-20)
(1.28162 -0.134265 2.79163e-20)
(0.171105 0.0240408 -2.33857e-19)
(0.450769 0.020083 -4.33187e-20)
(0.695609 -0.0251299 -1.12659e-19)
(0.894104 -0.0675172 9.36099e-20)
(1.04732 -0.106751 5.20667e-19)
(1.15559 -0.13219 2.53994e-19)
(1.22539 -0.145306 -9.07434e-20)
(1.26464 -0.146465 -1.38688e-19)
(1.28176 -0.140272 2.39535e-19)
(1.28504 -0.125266 1.36731e-20)
(0.158248 0.0276695 3.04912e-19)
(0.425378 0.0311085 4.07837e-20)
(0.665151 -0.00822052 4.11205e-19)
(0.863909 -0.0471942 -4.8409e-19)
(1.02127 -0.0855506 -1.26518e-19)
(1.13581 -0.112146 -2.02234e-19)
(1.2125 -0.127735 -2.38435e-19)
(1.25803 -0.13182 4.79561e-19)
(1.28021 -0.128742 -1.16782e-19)
(1.28689 -0.115687 -1.90823e-19)
(0.145518 0.0304622 2.88417e-19)
(0.39963 0.0406011 4.73371e-19)
(0.633516 0.00713617 -8.12406e-19)
(0.831661 -0.0280968 4.61235e-19)
(0.992463 -0.0650417 -1.11913e-19)
(1.11289 -0.0922626 -9.97451e-20)
(1.19648 -0.109912 3.91717e-19)
(1.24859 -0.116682 -2.22092e-19)
(1.27636 -0.116653 6.02743e-20)
(1.28695 -0.105518 1.76571e-19)
(0.13301 0.032453 -1.92899e-19)
(0.373731 0.0485672 1.97785e-20)
(0.600954 0.0208774 9.27417e-19)
(0.797589 -0.0103533 2.8249e-20)
(0.96104 -0.0453889 6.12416e-20)
(1.08685 -0.0727031 7.13876e-19)
(1.17721 -0.0919626 -1.72911e-20)
(1.23611 -0.10113 -3.49467e-19)
(1.26997 -0.104032 -3.22279e-19)
(1.28496 -0.0947549 -5.09088e-20)
(0.120812 0.0336846 -9.44655e-19)
(0.347879 0.0550335 -9.05318e-19)
(0.567719 0.0329643 -4.2833e-19)
(0.761942 0.00592797 2.97768e-19)
(0.927178 -0.0267477 1.58353e-20)
(1.05775 -0.0536319 -5.81541e-19)
(1.15463 -0.0740234 -1.34975e-20)
(1.2204 -0.0852577 5.52764e-19)
(1.26079 -0.0909184 4.37267e-19)
(1.28063 -0.0834152 3.64178e-19)
(0.109004 0.0342076 1.55756e-18)
(0.322263 0.0600456 5.41224e-19)
(0.534063 0.0433824 3.07985e-19)
(0.724983 0.0206608 -6.57615e-19)
(0.891087 -0.00926108 5.82805e-19)
(1.0257 -0.035214 2.51667e-19)
(1.12868 -0.0562421 1.77661e-19)
(1.2013 -0.0691789 -2.63134e-19)
(1.24856 -0.0773623 -9.81351e-20)
(1.27365 -0.0715451 -2.12497e-19)
(0.0976559 0.0340789 -5.26555e-19)
(0.297061 0.0636669 1.72304e-19)
(0.500235 0.0521412 -6.15048e-19)
(0.68699 0.0337827 9.27742e-20)
(0.853006 0.00694374 -4.74632e-19)
(0.990823 -0.0176112 -8.07516e-19)
(1.09939 -0.0387743 -6.40737e-19)
(1.17866 -0.0530244 -2.75978e-20)
(1.23304 -0.0634278 -2.35433e-19)
(1.26368 -0.0592354 1.96194e-19)
(0.086829 0.0333613 -6.6363e-19)
(0.272437 0.0659768 -4.50513e-21)
(0.466479 0.0592736 3.65716e-19)
(0.648245 0.0452559 -1.31359e-19)
(0.813202 0.0217585 -7.10013e-19)
(0.953316 -0.000977597 7.04425e-19)
(1.06678 -0.0217811 2.75611e-19)
(1.15238 -0.0369425 1.81535e-19)
(1.21399 -0.0491915 2.5559e-19)
(1.25039 -0.0466403 -3.18562e-19)
(0.0765749 0.0321218 5.06794e-19)
(0.248537 0.0670685 5.12226e-20)
(0.433025 0.0648341 3.42477e-19)
(0.609035 0.0550683 1.77017e-19)
(0.771962 0.0350966 8.25563e-19)
(0.913403 0.0145438 -6.09777e-19)
(1.03098 -0.00542512 1.44564e-19)
(1.12241 -0.0210962 9.40383e-20)
(1.1912 -0.0347413 -3.31108e-19)
(1.23341 -0.0340019 2.93509e-19)
(0.0669355 0.0304306 6.21895e-19)
(0.225494 0.0670472 -8.94964e-20)
(0.40009 0.0688976 -1.25948e-19)
(0.569643 0.0632326 3.08523e-19)
(0.729592 0.0468949 -3.45055e-19)
(0.871352 0.0288256 5.06224e-19)
(0.992125 0.0101336 1.37945e-19)
(1.08876 -0.00565861 -2.3581e-19)
(1.16445 -0.0201733 -2.00238e-19)
(1.21241 -0.0216746 -3.44576e-19)
(0.0579428 0.02836 -6.13968e-19)
(0.20342 0.0660276 -5.11071e-19)
(0.367872 0.0715568 -2.99051e-19)
(0.530345 0.0697857 -1.07573e-18)
(0.686411 0.0571151 4.50091e-20)
(0.827464 0.0417597 -6.68582e-20)
(0.950438 0.0247418 -2.58622e-19)
(1.05151 0.0091944 -3.36225e-19)
(1.13358 -0.00558894 7.91125e-19)
(1.1871 -0.010155 1.18343e-19)
(0.0496196 0.0259836 -7.74703e-19)
(0.182409 0.0641319 7.54009e-19)
(0.336553 0.0729198 -2.56427e-19)
(0.491406 0.0747875 5.16095e-19)
(0.642741 0.0657448 -6.53196e-19)
(0.782072 0.0532602 3.06782e-20)
(0.906183 0.038258 7.11347e-20)
(1.01081 0.0232948 1.93495e-19)
(1.09841 0.00890054 -4.894e-19)
(1.15715 -0.000170994 1.95605e-19)
(0.0419797 0.0233752 9.46263e-19)
(0.162538 0.0614871 -3.74321e-19)
(0.306291 0.0731075 4.21197e-19)
(0.453075 0.0783181 9.79132e-20)
(0.598905 0.0727965 9.06915e-19)
(0.735535 0.0632663 6.85267e-20)
(0.859684 0.0505567 5.95357e-19)
(0.966888 0.0365027 -5.82876e-20)
(1.05873 0.0231942 -2.82291e-19)
(1.12212 0.00720534 -2.36598e-19)
(0.0350253 0.0206049 -1.91649e-19)
(0.143861 0.0582202 -1.64087e-19)
(0.277223 0.0722481 -5.99102e-19)
(0.415581 0.0804737 2.82869e-19)
(0.55522 0.0783053 -2.75372e-19)
(0.688226 0.0717413 -4.2162e-19)
(0.811315 0.06153 -6.58425e-19)
(0.920079 0.0487283 -1.90892e-19)
(1.01443 0.0373512 6.41953e-19)
(0.0287425 0.017733 2.17666e-19)
(0.126407 0.0544489 8.51035e-20)
(0.249454 0.0704683 7.16595e-20)
(0.379126 0.0813585 -3.35449e-19)
(0.511986 0.0823238 2.70158e-19)
(0.640526 0.0786708 -2.28047e-19)
(0.761502 0.0710838 2.09742e-19)
(0.870812 0.0598927 2.17494e-19)
(0.965849 0.0515123 -8.04396e-19)
(0.0231226 0.0148286 -8.33536e-20)
(0.110203 0.0503014 -2.88758e-19)
(0.223083 0.0679062 7.26236e-19)
(0.343902 0.0810935 9.08841e-19)
(0.469501 0.084926 -1.22485e-19)
(0.592825 0.0840634 5.25957e-19)
(0.710707 0.0791358 -1.57993e-19)
(0.819614 0.0698464 1.15805e-19)
(0.0181561 0.0119653 -8.1564e-19)
(0.0952625 0.0459083 6.42459e-19)
(0.198188 0.0647069 -3.91488e-19)
(0.310076 0.0798119 -4.82316e-19)
(0.428037 0.0862055 -1.76103e-19)
(0.5455 0.0879517 -5.88448e-19)
(0.659404 0.0856232 -1.44856e-19)
(0.766962 0.0784487 -1.79712e-19)
(0.0138176 0.00920266 5.43991e-19)
(0.0815771 0.0413857 -1.81652e-19)
(0.174819 0.061006 3.32958e-19)
(0.277786 0.0776456 -2.47969e-20)
(0.387843 0.0862651 6.12833e-21)
(0.498912 0.0903863 -3.1908e-20)
(0.608065 0.0905127 3.03345e-19)
(0.71331 0.0855723 3.99691e-19)
(0.0100735 0.0065928 2.09598e-19)
(0.0691217 0.0368388 1.28912e-19)
(0.153006 0.0569307 1.47211e-20)
(0.247146 0.074725 -1.73524e-19)
(0.34914 0.0852148 -4.60043e-19)
(0.453405 0.0914349 6.02746e-19)
(0.557152 0.0938047 4.83804e-19)
(0.659156 0.0911148 -1.85279e-19)
(0.00688604 0.00418185 3.72903e-19)
(0.0578604 0.0323632 -2.08012e-20)
(0.132763 0.0526002 -3.40022e-19)
(0.218248 0.0711766 3.03283e-19)
(0.312128 0.0831693 7.20525e-19)
(0.409297 0.0911789 3.98064e-20)
(0.507121 0.0955297 -7.27692e-19)
(0.00421315 0.00200952 -2.71754e-19)
(0.0477477 0.0280431 -5.19706e-19)
(0.114088 0.0481232 -3.37869e-19)
(0.191164 0.0671209 -3.15198e-19)
(0.276982 0.0802443 -1.42543e-19)
(0.366887 0.0897105 -6.77126e-19)
(0.458405 0.0957427 2.80693e-19)
(0.00200965 0.000108176 3.47131e-19)
(0.0387301 0.0239501 -1.23154e-19)
(0.0969672 0.0435959 5.34481e-19)
(0.165949 0.0626693 -1.26838e-19)
(0.243854 0.0765534 5.5873e-19)
(0.326447 0.0871284 7.48538e-19)
(0.411419 0.0945177 -3.49033e-19)
(0.000227997 -0.00149762 -5.12154e-19)
(0.030748 0.0201426 7.73329e-19)
(0.0813766 0.0391011 -2.67129e-19)
(0.142643 0.0579224 5.39646e-19)
(0.212876 0.0722052 -4.37896e-19)
(0.288226 0.0835353 -3.30908e-19)
(0.366549 0.0919428 2.95437e-19)
(-0.00118075 -0.00279134 4.04286e-20)
(0.0237379 0.0166648 -4.16754e-19)
(0.0672843 0.034707 3.65292e-19)
(0.121271 0.0529687 -3.24796e-19)
(0.184159 0.0673014 2.39436e-20)
(0.252448 0.0790346 -1.92523e-20)
(0.324154 0.088117 -2.34801e-20)
(-0.00226595 -0.00376464 -1.73217e-19)
(0.0176339 0.013547 6.72959e-21)
(0.0546529 0.0304674 -2.77161e-19)
(0.101849 0.0478836 -1.78396e-20)
(0.1578 0.0619351 -1.04013e-19)
(0.219315 0.0737284 2.1768e-19)
(0.284565 0.0831461 2.59249e-20)
(-0.00307642 -0.0044176 1.03792e-19)
(0.01237 0.0108057 4.64649e-19)
(0.0434418 0.0264207 -3.03031e-19)
(0.0843858 0.0427292 -4.14065e-19)
(0.133879 0.0561896 4.35635e-20)
(0.189007 0.0677153 1.3239e-19)
(-0.00365955 -0.00475883 -1.96313e-19)
(0.00788168 0.00844398 -3.37567e-19)
(0.0336088 0.0225914 4.60275e-19)
(0.0688827 0.0375545 -2.41686e-20)
(0.112465 0.0501383 -2.35842e-19)
(0.161681 0.0610894 -3.60708e-19)
(-0.00405986 -0.00480414 -1.00783e-19)
(0.00410726 0.00645161 -1.16757e-20)
(0.0251121 0.0189899 -4.33309e-19)
(0.0553373 0.0323953 1.52238e-19)
(0.093615 0.0438446 -1.37045e-19)
(0.137475 0.0539398 -2.25479e-20)
(-0.00431817 -0.00457459 4.97921e-19)
(0.000988955 0.00480441 1.09245e-19)
(0.0179119 0.0156138 4.63231e-19)
(0.0437445 0.0272759 1.41738e-19)
(0.0773758 0.0373623 1.56016e-19)
(0.11651 0.0463499 3.15698e-19)
(-0.00447211 -0.0040991 -2.5477e-19)
(-0.00152543 0.0034685 -7.8402e-21)
(0.0119721 0.0124492 -7.08309e-20)
(0.0340978 0.0222095 -1.52598e-20)
(0.0637867 0.0307362 1.93597e-19)
(0.0988863 0.0383977 -2.85704e-19)
(-0.00455452 -0.00341465 5.89234e-20)
(-0.00348058 0.00240203 -1.16025e-19)
(0.00726091 0.00947183 -1.23612e-19)
(0.0263904 0.0171998 2.21761e-19)
(0.0528791 0.0240037 -1.2722e-20)
(0.0846874 0.0301563 7.28431e-21)
(-0.00459217 -0.00256249 -6.22679e-20)
(-0.00491349 0.00155412 7.78898e-20)
(0.00375167 0.0066493 6.25579e-20)
(0.0206161 0.0122427 -1.79764e-19)
(0.0446774 0.0171953 -4.92528e-20)
(0.0739803 0.0216946 1.22254e-19)
(-0.00460562 -0.00158749 -5.25017e-21)
(-0.00585264 0.000866983 -2.52705e-20)
(0.00142385 0.00394225 -3.68974e-20)
(0.0167697 0.00732767 5.81503e-20)
(0.0391998 0.0103365 3.05389e-20)
(0.0668145 0.0130781 -1.67722e-20)
(-0.00631733 0.000278065 9.75921e-21)
(0.000263464 0.00130621 -4.24902e-20)
(0.0148474 0.0024396 -3.80843e-20)
(0.036458 0.00344874 -1.64734e-20)
(0.0632234 0.00436963 1.07181e-20)
(1.15343 -0.163311 -1.35667e-20)
(1.15388 -0.168824 -1.18528e-20)
(1.16462 -0.167305 -1.34876e-20)
(1.17523 -0.165419 -1.73798e-23)
(1.15441 -0.174256 2.06767e-20)
(1.16544 -0.172631 7.46732e-21)
(1.17633 -0.17061 1.85191e-20)
(1.18703 -0.168201 -2.71761e-21)
(1.19751 -0.165409 -1.13503e-21)
(1.20771 -0.162247 2.63036e-22)
(1.21759 -0.158712 -1.42481e-21)
(1.15502 -0.179562 1.07375e-20)
(1.16632 -0.177821 2.91644e-20)
(1.17745 -0.175657 -2.61314e-20)
(1.18838 -0.173081 2.01891e-21)
(1.19905 -0.170097 1.30319e-21)
(1.20943 -0.166718 2.08855e-23)
(1.21945 -0.162946 3.13406e-21)
(1.22907 -0.158784 6.31171e-22)
(1.15568 -0.184784 2.42433e-21)
(1.16722 -0.182902 1.35239e-21)
(1.17857 -0.180577 1.48856e-20)
(1.1897 -0.177819 -4.96145e-21)
(1.20054 -0.174634 -3.85037e-22)
(1.21107 -0.171035 -1.96582e-21)
(1.22122 -0.167025 -2.7691e-21)
(1.23093 -0.162606 -1.55205e-21)
(1.27973 -0.0438199 4.66663e-20)
(1.28319 -0.0557463 -3.77973e-20)
(1.28033 -0.0490541 4.50031e-20)
(1.27605 -0.0420097 -4.92296e-20)
(1.2837 -0.0613902 -2.60992e-20)
(1.28111 -0.0545582 -6.61964e-20)
(1.27704 -0.0473751 -2.96598e-20)
(1.27136 -0.0398576 -4.99804e-20)
(1.28504 -0.073977 -1.36133e-19)
(1.28423 -0.0673325 -2.29913e-20)
(1.28201 -0.0603385 2.67603e-20)
(1.27826 -0.0530049 6.76019e-20)
(1.27287 -0.0453513 -3.13751e-20)
(1.26567 -0.0373997 6.67035e-21)
(1.284 -0.0868994 -7.62727e-20)
(1.285 -0.0804358 -2.04902e-20)
(1.28471 -0.0736168 7.07763e-20)
(1.28298 -0.0664435 1.40913e-20)
(1.27967 -0.0589288 6.19106e-20)
(1.27465 -0.0511014 -7.33292e-20)
(1.26782 -0.0430046 -3.48536e-20)
(1.25897 -0.0346727 1.08899e-19)
(1.28311 -0.0938996 5.90976e-20)
(1.28473 -0.0872771 1.08191e-19)
(1.28504 -0.0802863 -1.25764e-19)
(1.28391 -0.0729272 -1.04802e-19)
(1.28117 -0.0652126 -3.4333e-20)
(1.27668 -0.0571726 6.79127e-20)
(1.27029 -0.0488604 1.38958e-19)
(1.26191 -0.0403514 -1.61049e-20)
(1.25129 -0.031705 4.31808e-20)
(1.27836 -0.107667 -2.18794e-20)
(1.2818 -0.101284 5.81975e-20)
(1.2841 -0.0945224 -3.59699e-20)
(1.28511 -0.0873755 -1.05229e-19)
(1.28468 -0.0798407 7.26336e-20)
(1.28264 -0.0719268 2.13173e-19)
(1.27883 -0.0636598 2.21901e-20)
(1.27306 -0.0550908 -1.50032e-19)
(1.26521 -0.046303 -9.73444e-20)
(1.25515 -0.037413 6.20157e-20)
(1.24264 -0.0285237 -1.04236e-19)
(1.2707 -0.121608 -1.74363e-23)
(1.27583 -0.115515 -2.97634e-20)
(1.27998 -0.109038 -1.82621e-20)
(1.28302 -0.102167 -2.93273e-20)
(1.2848 -0.0948911 8.80916e-20)
(1.28517 -0.0872046 2.64927e-20)
(1.28394 -0.0791115 9.05546e-20)
(1.28094 -0.070631 -6.36307e-20)
(1.27598 -0.0618053 3.80513e-20)
(1.26887 -0.0527101 1.26364e-19)
(1.25945 -0.0434642 1.95693e-19)
(1.24761 -0.0342343 -2.84351e-20)
(1.23309 -0.025187 -2.01599e-21)
(1.24475 -0.145914 4.83297e-21)
(1.25277 -0.140917 -2.31176e-22)
(1.26015 -0.135549 -9.38117e-21)
(1.26681 -0.129802 -7.32409e-21)
(1.27264 -0.123667 4.81752e-20)
(1.27754 -0.11713 1.37726e-20)
(1.28136 -0.11018 3.47778e-20)
(1.28397 -0.102803 3.5047e-20)
(1.28521 -0.0949919 -7.02097e-20)
(1.28489 -0.0867449 -9.57129e-20)
(1.28282 -0.0780735 -1.15097e-19)
(1.27881 -0.0690101 -8.7624e-20)
(1.27263 -0.0596172 2.15562e-20)
(1.26409 -0.050001 -2.31459e-19)
(1.25302 -0.0403246 -1.08374e-19)
(1.2393 -0.030817 -5.95546e-20)
(1.23822 -0.154234 -8.47577e-22)
(1.24685 -0.149296 -9.80499e-21)
(1.25487 -0.143967 2.91138e-21)
(1.2622 -0.138238 1.01869e-20)
(1.26875 -0.132102 1.07241e-20)
(1.27441 -0.125545 -6.95593e-20)
(1.27905 -0.118553 6.26353e-20)
(1.28253 -0.111111 1.9665e-20)
(1.28469 -0.103207 -2.95348e-20)
(1.28535 -0.0948332 -3.90854e-20)
(1.2843 -0.0859929 2.61181e-20)
(1.28134 -0.0767065 -1.70479e-20)
(1.27623 -0.0670218 -4.77924e-20)
(1.26875 -0.0570261 -5.80774e-20)
(1.25869 -0.0468628 1.29073e-19)
(1.24585 -0.0367486 -9.78457e-20)
(1.2301 -0.0269877 3.84281e-20)
(1.24015 -0.157779 2.16864e-21)
(1.24881 -0.152542 8.2925e-21)
(1.25682 -0.14689 1.98614e-20)
(1.2641 -0.140814 -4.0366e-21)
(1.27054 -0.1343 -1.88837e-20)
(1.27602 -0.127335 4.28579e-20)
(1.28041 -0.119899 5.85612e-21)
(1.28354 -0.111976 6.92515e-21)
(1.28524 -0.103552 3.22694e-20)
(1.28531 -0.0946172 8.7362e-20)
(1.28352 -0.0851788 7.12587e-20)
(1.27964 -0.0752633 9.51215e-20)
(1.2734 -0.0649309 2.03349e-20)
(1.26456 -0.0542897 -5.20928e-20)
(1.25286 -0.0435158 6.15529e-20)
(1.23809 -0.0328733 4.19255e-20)
(1.22009 -0.0227332 1.50232e-19)
)
;

boundaryField
{
    inlet
    {
        type            uniformFixedValue;
        uniformValue    constant (1 0 0);
        value           nonuniform 0();
    }
    outlet
    {
        type            pressureInletOutletVelocity;
        value           nonuniform 0();
    }
    cylinder
    {
        type            fixedValue;
        value           uniform (0 0 0);
    }
    top
    {
        type            symmetryPlane;
    }
    bottom
    {
        type            symmetryPlane;
    }
    defaultFaces
    {
        type            empty;
    }
    procBoundary5to0
    {
        type            processor;
        value           nonuniform List<vector> 8((1.13281 -0.207235 -4.66784e-22) (1.13281 -0.207235 -4.66784e-22) (1.144 -0.186212 -4.23366e-21) (1.14296 -0.1644 -2.3047e-20) (1.14306 -0.169973 -2.06696e-20) (1.14328 -0.175479 2.56065e-20) (1.1436 -0.180872 -1.9852e-20) (1.144 -0.186212 -4.23366e-21));
    }
    procBoundary5to1
    {
        type            processor;
        value           nonuniform List<vector> 
38
(
(1.15308 -0.15774 -3.98609e-21)
(1.16385 -0.161883 2.0295e-20)
(1.16385 -0.161883 2.0295e-20)
(1.17417 -0.160119 -1.50358e-20)
(1.18569 -0.163171 -1.36677e-20)
(1.18569 -0.163171 -1.36677e-20)
(1.19594 -0.160568 2.19965e-21)
(1.20595 -0.157617 -3.67051e-23)
(1.21566 -0.154319 -8.16407e-22)
(1.22709 -0.154811 -9.18611e-22)
(1.22709 -0.154811 -9.18611e-22)
(1.2824 -0.045256 -1.2078e-21)
(1.28451 -0.0565533 -7.97489e-20)
(1.28274 -0.0503647 2.29381e-20)
(1.28274 -0.0503647 2.29381e-20)
(1.28472 -0.0620727 -7.29611e-20)
(1.28472 -0.0620727 -7.29611e-20)
(1.28488 -0.0739969 -2.22169e-20)
(1.28492 -0.0678684 -7.99773e-20)
(1.28492 -0.0678684 -7.99773e-20)
(1.28292 -0.0862275 -7.33613e-20)
(1.28456 -0.0802727 1.54478e-20)
(1.28456 -0.0802727 1.54478e-20)
(1.28183 -0.0930143 5.27332e-20)
(1.28183 -0.0930143 5.27332e-20)
(1.27653 -0.106071 -5.33707e-21)
(1.28034 -0.100161 8.89601e-21)
(1.28034 -0.100161 8.89601e-21)
(1.26858 -0.119349 -3.13658e-20)
(1.27392 -0.113685 3.61946e-20)
(1.27392 -0.113685 3.61946e-20)
(1.24253 -0.14237 3.00153e-21)
(1.25054 -0.137704 1.62169e-20)
(1.25796 -0.132693 1.14104e-20)
(1.26471 -0.127331 -4.33157e-20)
(1.26471 -0.127331 -4.33157e-20)
(1.23617 -0.150544 1.3363e-21)
(1.23617 -0.150544 1.3363e-21)
)
;
    }
    procBoundary5to2
    {
        type            processor;
        value           nonuniform List<vector> 10((1.27556 -0.0370278 4.17304e-20) (1.2706 -0.0347538 -1.70162e-19) (1.26454 -0.0321728 1.73146e-20) (1.25736 -0.0293308 9.3361e-20) (1.24907 -0.0262776 1.52547e-20) (1.23967 -0.0230585 -6.76612e-20) (1.22911 -0.0197165 8.66319e-20) (1.21742 -0.0163379 -9.90344e-20) (1.22269 -0.0217325 -1.59794e-20) (1.22269 -0.0217325 -1.59794e-20));
    }
    procBoundary5to4
    {
        type            processor;
        value           nonuniform List<vector> 
38
(
(0.159921 -0.0168522 -1.49887e-20)
(0.162223 -0.05044 4.8594e-20)
(0.166808 -0.0836863 -1.24442e-19)
(0.173633 -0.116369 2.07077e-19)
(0.182638 -0.14827 1.85998e-20)
(0.193742 -0.179178 -1.98372e-19)
(0.206847 -0.208888 9.9711e-21)
(0.221834 -0.237205 5.90932e-19)
(0.221834 -0.237205 5.90932e-19)
(0.400847 -0.284552 5.51293e-19)
(0.419649 -0.312529 4.65564e-19)
(0.44002 -0.338757 -5.02311e-19)
(0.461807 -0.363096 3.732e-19)
(0.48484 -0.385417 -6.7695e-19)
(0.50894 -0.405603 4.3393e-19)
(0.53392 -0.423554 3.86174e-19)
(0.559581 -0.439182 -1.21711e-19)
(0.559581 -0.439182 -1.21711e-19)
(0.696315 -0.435132 -5.86713e-20)
(0.721807 -0.447766 4.45173e-19)
(0.747607 -0.45828 -6.89899e-19)
(0.773532 -0.466634 2.34256e-19)
(0.773532 -0.466634 2.34256e-19)
(0.8698 -0.427629 1.82876e-19)
(0.893577 -0.433595 -5.26616e-19)
(0.917238 -0.43778 3.68807e-19)
(0.917238 -0.43778 3.68807e-19)
(0.978101 -0.386775 1.05659e-20)
(0.999337 -0.389177 -2.87457e-19)
(1.02031 -0.390164 2.41579e-19)
(1.02031 -0.390164 2.41579e-19)
(1.0585 -0.337362 -6.21145e-20)
(1.07703 -0.337232 2.1608e-19)
(1.07703 -0.337232 2.1608e-19)
(1.10177 -0.288125 9.54443e-20)
(1.10177 -0.288125 9.54443e-20)
(1.1202 -0.243854 -2.35142e-19)
(1.1202 -0.243854 -2.35142e-19)
)
;
    }
    procBoundary5to6
    {
        type            processor;
        value           nonuniform List<vector> 
28
(
(1.19868 -0.0135703 1.9651e-19)
(1.08271 0.0111313 -1.41927e-19)
(1.17468 -0.00557796 -3.93537e-20)
(1.08271 0.0111313 -1.41927e-19)
(1.04115 0.017848 -3.38357e-19)
(0.914469 0.064475 -6.65998e-19)
(0.914469 0.064475 -6.65998e-19)
(0.86085 0.075567 4.93431e-19)
(0.805413 0.0846547 -2.00809e-19)
(0.748724 0.0917712 -4.35828e-19)
(0.605041 0.0950099 1.21769e-19)
(0.605041 0.0950099 1.21769e-19)
(0.551522 0.0972275 -1.52067e-19)
(0.499159 0.0977711 7.54215e-20)
(0.448499 0.0966755 2.80929e-19)
(0.400072 0.0940025 -6.73543e-19)
(0.354376 0.0898368 3.084e-19)
(0.24808 0.07714 -3.99093e-19)
(0.24808 0.07714 -3.99093e-19)
(0.214969 0.0702108 4.8387e-19)
(0.185473 0.0624708 1.30385e-19)
(0.1598 0.0540318 -1.01268e-19)
(0.138131 0.0450044 -2.36043e-19)
(0.120616 0.0354977 1.49543e-19)
(0.107374 0.0256198 6.18766e-21)
(0.0984954 0.0154775 3.31218e-20)
(1.21127 -0.0179489 -4.30357e-20)
(1.19868 -0.0135703 1.9651e-19)
)
;
    }
    procBoundary5to9
    {
        type            processor;
        value           nonuniform List<vector> 8((-0.00631733 -0.000278065 7.99282e-21) (0.000263464 -0.00130621 -4.40019e-20) (0.0148474 -0.0024396 -3.75861e-20) (0.036458 -0.00344874 -1.03105e-20) (0.0632234 -0.00436963 6.00367e-21) (0.0372874 0.00980839 1.08035e-20) (-0.00460882 -0.000537537 5.6932e-21) (-0.00460882 -0.000537537 5.6932e-21));
    }
    procBoundary5to10
    {
        type            processor;
        value           uniform (0.0940411 0.00517678 3.26296e-20);
    }
}


// ************************************************************************* //
