/*--------------------------------*- C++ -*----------------------------------*\
  =========                 |
  \\      /  F ield         | OpenFOAM: The Open Source CFD Toolbox
   \\    /   O peration     | Website:  https://openfoam.org
    \\  /    A nd           | Version:  7
     \\/     M anipulation  |
\*---------------------------------------------------------------------------*/
FoamFile
{
    version     2.0;
    format      ascii;
    class       volVectorField;
    location    "5";
    object      U;
}
// * * * * * * * * * * * * * * * * * * * * * * * * * * * * * * * * * * * * * //

dimensions      [0 1 -1 0 0 0 0];

internalField   nonuniform List<vector> 
2625
(
(1.14613 -0.0449967 8.97007e-21)
(1.15044 -0.0440722 1.69798e-21)
(1.15471 -0.0431521 -1.21398e-21)
(1.15896 -0.0422378 -2.5052e-21)
(1.16316 -0.0413303 2.26502e-21)
(1.16732 -0.0404298 -3.17053e-21)
(1.17142 -0.039536 2.03116e-21)
(1.17547 -0.038648 1.10912e-21)
(1.17946 -0.037764 -3.22291e-22)
(1.18338 -0.0368818 -1.49088e-22)
(1.18723 -0.0359984 2.98682e-22)
(1.191 -0.0351104 -1.92591e-22)
(1.19469 -0.0342135 1.03875e-22)
(1.19829 -0.0333032 -4.05118e-22)
(1.2018 -0.0323742 4.83635e-22)
(1.20521 -0.0314209 4.4837e-22)
(1.20852 -0.0304373 -1.46336e-22)
(1.21173 -0.0294171 3.33587e-21)
(1.1145 -0.000429169 6.10374e-22)
(1.11821 -0.000423038 3.52658e-22)
(1.12196 -0.000417176 -1.26828e-22)
(1.12577 -0.000411565 -1.43872e-22)
(1.12962 -0.000406181 -1.94226e-22)
(1.1335 -0.000400991 -2.527e-22)
(1.13742 -0.000395961 9.25954e-23)
(1.14136 -0.000391054 1.82224e-22)
(1.14531 -0.000386232 -6.66236e-23)
(1.14928 -0.000381455 7.87937e-23)
(1.15325 -0.000376689 -8.5435e-23)
(1.1572 -0.000371897 4.77592e-23)
(1.16113 -0.000367049 1.30348e-23)
(1.16503 -0.000362115 -8.60045e-24)
(1.16889 -0.000357064 -7.00993e-24)
(1.1145 -0.00130274 -1.08383e-21)
(1.11821 -0.00128291 1.06335e-22)
(1.12197 -0.00126379 8.66515e-23)
(1.12577 -0.00124534 6.45804e-22)
(1.12962 -0.00122752 -1.39491e-22)
(1.1335 -0.00121025 -1.04625e-22)
(1.13742 -0.00119345 -3.71983e-22)
(1.14136 -0.00117703 -3.09749e-22)
(1.14532 -0.0011609 -8.93933e-23)
(1.14929 -0.00114497 5.79745e-23)
(1.15326 -0.00112916 1.34087e-22)
(1.15721 -0.00111338 -9.83109e-23)
(1.16114 -0.00109755 -1.11632e-23)
(1.16504 -0.0010816 1.35343e-23)
(1.1689 -0.00106544 1.0346e-23)
(1.1145 -0.00216812 1.22402e-21)
(1.11821 -0.00213445 4.6835e-22)
(1.12197 -0.00210194 1.18358e-23)
(1.12578 -0.00207054 -4.99465e-22)
(1.12963 -0.00204017 -9.52024e-23)
(1.13351 -0.00201072 -2.56902e-24)
(1.13743 -0.00198206 4.80887e-22)
(1.14138 -0.00195405 3.08247e-22)
(1.14534 -0.00192653 4.1782e-22)
(1.14931 -0.00189937 -2.06273e-22)
(1.15327 -0.00187241 -6.43428e-23)
(1.15723 -0.00184553 1.98517e-22)
(1.16116 -0.0018186 4.97718e-23)
(1.16506 -0.00179147 -5.65401e-23)
(1.16892 -0.00176404 -1.36406e-23)
(1.11449 -0.00302189 -1.03809e-21)
(1.11821 -0.0029745 8.80091e-22)
(1.12197 -0.00292873 -1.22781e-21)
(1.12578 -0.00288452 -3.7567e-22)
(1.12964 -0.00284174 1.1436e-21)
(1.13353 -0.00280025 -6.67826e-22)
(1.13745 -0.00275986 -3.76754e-22)
(1.14139 -0.00272038 2.08673e-22)
(1.14536 -0.0026816 -1.36609e-22)
(1.14933 -0.00264334 2.50608e-22)
(1.1533 -0.00260538 -2.58612e-22)
(1.15726 -0.00256753 -1.66606e-22)
(1.16119 -0.00252963 -1.11638e-22)
(1.16509 -0.00249148 6.34529e-23)
(1.16895 -0.00245292 -1.35189e-23)
(1.11449 -0.00386529 -1.14518e-21)
(1.11821 -0.00380427 2.18522e-21)
(1.12198 -0.00374532 -7.96603e-23)
(1.12579 -0.00368835 4.27466e-22)
(1.12965 -0.00363321 -1.75915e-21)
(1.13354 -0.00357972 5.67325e-22)
(1.13747 -0.00352765 4.49856e-22)
(1.14142 -0.00347676 -1.12852e-21)
(1.14538 -0.00342678 -4.38158e-22)
(1.14936 -0.00337745 -7.46043e-23)
(1.15333 -0.00332854 2.84643e-22)
(1.15729 -0.0032798 -7.29082e-23)
(1.16123 -0.003231 7.56828e-24)
(1.16513 -0.00318191 -2.82411e-23)
(1.16899 -0.00313232 -1.44115e-24)
(1.11448 -0.00469918 2.4967e-21)
(1.11821 -0.00462458 -3.12039e-21)
(1.12198 -0.00455248 -3.20548e-22)
(1.1258 -0.00448278 -1.2552e-21)
(1.12967 -0.00441531 3.8056e-22)
(1.13356 -0.00434984 -5.1944e-22)
(1.13749 -0.00428609 6.67413e-22)
(1.14145 -0.00422378 1.53596e-21)
(1.14542 -0.00416259 -3.58057e-22)
(1.14939 -0.00410222 3.36102e-22)
(1.15337 -0.00404236 -6.38973e-23)
(1.15733 -0.00398273 -2.74699e-23)
(1.16127 -0.00392305 1.09398e-22)
(1.16518 -0.00386305 -4.34678e-23)
(1.16904 -0.00380246 7.78373e-24)
(1.11448 -0.00552389 -3.6414e-21)
(1.11821 -0.00543576 2.24478e-21)
(1.12199 -0.00535056 6.4923e-22)
(1.12582 -0.00526815 1.18341e-21)
(1.12969 -0.00518836 -2.20648e-22)
(1.13359 -0.00511091 -1.50723e-22)
(1.13752 -0.00503549 -7.0222e-22)
(1.14148 -0.00496175 -4.94835e-22)
(1.14546 -0.00488934 3.23176e-22)
(1.14944 -0.0048179 -2.00538e-22)
(1.15342 -0.00474709 -2.97004e-22)
(1.15738 -0.00467657 1.18506e-22)
(1.16132 -0.00460602 -4.289e-23)
(1.16523 -0.00453511 2.14492e-23)
(1.1691 -0.00446355 1.91441e-23)
(1.11447 -0.00633963 2.51952e-21)
(1.11821 -0.00623804 -1.73797e-21)
(1.122 -0.00613979 -3.03294e-21)
(1.12583 -0.00604471 1.7616e-21)
(1.12971 -0.00595262 -1.31315e-21)
(1.13362 -0.00586319 -6.97464e-22)
(1.13756 -0.00577608 1.92484e-21)
(1.14152 -0.0056909 8.52399e-22)
(1.1455 -0.00560726 -5.92766e-23)
(1.14949 -0.00552475 9.72135e-24)
(1.15347 -0.00544297 4.43274e-22)
(1.15744 -0.00536155 -9.17408e-23)
(1.16138 -0.00528011 4.50699e-24)
(1.16529 -0.00519831 1.06214e-23)
(1.16916 -0.00511578 -1.14823e-23)
(1.11447 -0.00714669 1.83667e-21)
(1.11821 -0.00703171 -6.40083e-22)
(1.12201 -0.00692044 1.42882e-21)
(1.12585 -0.00681273 -2.24977e-21)
(1.12973 -0.00670834 3.6558e-21)
(1.13365 -0.00660693 5.53048e-22)
(1.13759 -0.00650813 -1.86275e-21)
(1.14156 -0.0064115 -8.45036e-23)
(1.14555 -0.0063166 5.4585e-22)
(1.14954 -0.00622298 -6.92224e-22)
(1.15353 -0.00613021 6.84556e-23)
(1.1575 -0.00603786 1.31527e-22)
(1.16145 -0.00594553 1.03478e-22)
(1.16536 -0.00585282 -3.70464e-23)
(1.16923 -0.00575933 5.91532e-24)
(1.11446 -0.00794532 2.79414e-21)
(1.11822 -0.00781702 -4.16464e-21)
(1.12202 -0.00769279 2.56213e-21)
(1.12587 -0.00757247 1.95582e-21)
(1.12976 -0.00745579 -2.13384e-21)
(1.13368 -0.00734241 -1.00331e-21)
(1.13764 -0.00723189 -1.01428e-21)
(1.14161 -0.00712377 -1.97446e-21)
(1.1456 -0.00701758 -5.02038e-22)
(1.1496 -0.00691282 5.63851e-22)
(1.15359 -0.00680902 1.43131e-22)
(1.15757 -0.00670572 -7.39636e-23)
(1.16152 -0.00660248 -5.33373e-23)
(1.16544 -0.00649884 -4.41533e-23)
(1.16931 -0.00639438 1.54767e-23)
(1.11446 -0.00873577 3.30774e-22)
(1.11822 -0.00859421 2.42594e-21)
(1.12203 -0.00845707 6.9321e-22)
(1.12589 -0.00832416 -2.22108e-22)
(1.12979 -0.00819522 -5.19421e-23)
(1.13372 -0.00806984 1.69908e-21)
(1.13768 -0.00794759 7.77401e-22)
(1.14166 -0.00782795 2.50493e-21)
(1.14566 -0.00771043 7.21981e-24)
(1.14966 -0.00759449 -1.75982e-24)
(1.15366 -0.00747962 -4.40851e-22)
(1.15764 -0.00736533 -1.28194e-22)
(1.1616 -0.00725113 2.40919e-23)
(1.16552 -0.00713655 1.11548e-22)
(1.16939 -0.0070211 -7.27698e-23)
(1.11445 -0.00951826 -4.81687e-21)
(1.11822 -0.00936352 5.23285e-21)
(1.12205 -0.00921352 -5.21453e-22)
(1.12591 -0.00906805 -1.73927e-22)
(1.12982 -0.00892683 6.06021e-22)
(1.13376 -0.00878945 1.7699e-22)
(1.13773 -0.00865543 8.17612e-22)
(1.14172 -0.00852424 -1.56815e-21)
(1.14572 -0.00839534 1.02687e-21)
(1.14973 -0.00826817 -8.16319e-22)
(1.15373 -0.00814218 1.85762e-22)
(1.15772 -0.00801685 4.43635e-22)
(1.16168 -0.00789166 7.44545e-23)
(1.1656 -0.0077661 1.35725e-22)
(1.16948 -0.00763966 1.29096e-23)
(1.11445 -0.010293 -3.37531e-22)
(1.11823 -0.0101252 -8.37262e-21)
(1.12206 -0.00996235 -4.63659e-21)
(1.12594 -0.00980434 -5.77301e-21)
(1.12985 -0.00965085 -8.30454e-22)
(1.1338 -0.00950145 1.25586e-21)
(1.13778 -0.00935563 8.28679e-22)
(1.14178 -0.00921284 1.21057e-21)
(1.14579 -0.00907251 -1.78153e-21)
(1.1498 -0.00893405 1.28357e-21)
(1.15381 -0.00879689 2.57704e-22)
(1.1578 -0.00866047 -3.60828e-22)
(1.16177 -0.00852425 -1.17742e-22)
(1.1657 -0.00838767 -1.9225e-22)
(1.16958 -0.00825019 -1.74592e-23)
(1.11444 -0.0110602 2.8189e-21)
(1.11824 -0.0108794 8.96823e-21)
(1.12208 -0.0107038 4.39212e-21)
(1.12596 -0.0105332 7.85064e-23)
(1.12989 -0.0103675 4.90311e-21)
(1.13385 -0.010206 -2.20882e-21)
(1.13784 -0.0100484 -2.46605e-21)
(1.14184 -0.00989392 4.16754e-22)
(1.14586 -0.0097421 8.32236e-22)
(1.14988 -0.00959229 -2.05352e-21)
(1.15389 -0.0094439 -3.57017e-22)
(1.15789 -0.00929634 -1.95294e-22)
(1.16186 -0.00914903 -4.36403e-24)
(1.16579 -0.0090014 2.17854e-23)
(1.16968 -0.00885286 3.85825e-23)
(1.11444 -0.0118201 -3.6898e-21)
(1.11824 -0.0116263 -3.39259e-21)
(1.1221 -0.0114379 3.92054e-21)
(1.12599 -0.0112549 6.08563e-21)
(1.12993 -0.0110769 -2.68449e-21)
(1.1339 -0.0109033 -6.26104e-22)
(1.13789 -0.0107338 -6.23525e-22)
(1.14191 -0.0105677 3.50513e-22)
(1.14593 -0.0104043 -2.03525e-22)
(1.14996 -0.0102431 1.37011e-21)
(1.15398 -0.0100834 -3.97536e-22)
(1.15798 -0.00992461 2.92262e-22)
(1.16196 -0.00976616 -1.55287e-22)
(1.1659 -0.00960743 7.57239e-23)
(1.16978 -0.00944779 -2.42792e-23)
(1.11444 -0.0125728 -5.95616e-22)
(1.11825 -0.0123661 3.18347e-21)
(1.12212 -0.0121651 -9.02984e-21)
(1.12603 -0.0119696 1.13572e-21)
(1.12997 -0.0117792 3.07105e-22)
(1.13395 -0.0115936 5.59464e-22)
(1.13795 -0.0114121 -1.02058e-21)
(1.14198 -0.0112342 -3.23053e-21)
(1.14601 -0.0110592 1.59763e-21)
(1.15004 -0.0108865 -2.31416e-22)
(1.15407 -0.0107155 1.20185e-21)
(1.15808 -0.0105454 -1.79634e-22)
(1.16206 -0.0103758 8.31892e-23)
(1.166 -0.0102059 -4.55967e-23)
(1.16989 -0.0100351 -6.69375e-24)
(1.11444 -0.0133186 5.15475e-21)
(1.11827 -0.013099 -4.69203e-21)
(1.12214 -0.0128853 5.49094e-21)
(1.12606 -0.0126773 -1.02913e-21)
(1.13002 -0.0124747 -4.84947e-21)
(1.134 -0.0122769 3.4432e-21)
(1.13802 -0.0120835 2.09653e-21)
(1.14205 -0.0118937 7.73287e-22)
(1.14609 -0.0117071 -2.20106e-21)
(1.15013 -0.0115228 1.28315e-21)
(1.15417 -0.0113403 -1.87206e-21)
(1.15818 -0.0111589 1.42819e-22)
(1.16217 -0.010978 8.09697e-23)
(1.16611 -0.0107969 1.863e-22)
(1.17001 -0.010615 -5.80399e-23)
(1.11444 -0.0140575 -4.07013e-21)
(1.11828 -0.0138252 1.51495e-21)
(1.12217 -0.0135989 -3.18426e-21)
(1.1261 -0.0133784 -4.55762e-21)
(1.13006 -0.0131634 2.79659e-21)
(1.13406 -0.0129535 -2.19979e-21)
(1.13809 -0.012748 1.30475e-21)
(1.14213 -0.0125463 3.78002e-22)
(1.14618 -0.0123479 6.76767e-24)
(1.15023 -0.012152 -4.36498e-22)
(1.15427 -0.011958 1.27496e-21)
(1.15829 -0.0117652 -2.41715e-22)
(1.16228 -0.011573 -2.7269e-23)
(1.16623 -0.0113807 -3.69191e-22)
(1.17012 -0.0111875 2.76945e-23)
(1.11444 -0.0147898 1.35358e-21)
(1.11829 -0.0145448 4.04503e-22)
(1.12219 -0.0143059 -2.53116e-21)
(1.12613 -0.0140729 1.06576e-21)
(1.13011 -0.0138456 2.16963e-21)
(1.13412 -0.0136234 -2.57018e-21)
(1.13816 -0.0134058 -2.48518e-21)
(1.14221 -0.0131922 1.1438e-21)
(1.14626 -0.0129819 -1.50323e-22)
(1.15032 -0.0127743 5.84537e-22)
(1.15437 -0.0125687 -1.12566e-21)
(1.15839 -0.0123645 -9.95512e-23)
(1.16239 -0.0121609 9.62883e-23)
(1.16634 -0.0119572 3.24443e-22)
(1.17025 -0.0117528 1.17478e-23)
(1.11444 -0.0155156 2.96411e-21)
(1.11831 -0.0152579 3.22404e-21)
(1.12222 -0.0150064 8.9671e-21)
(1.12617 -0.014761 -1.48576e-21)
(1.13016 -0.0145212 -2.54908e-23)
(1.13419 -0.0142867 6.44652e-21)
(1.13823 -0.014057 -9.01395e-22)
(1.14229 -0.0138314 7.48202e-22)
(1.14635 -0.0136092 1.80667e-21)
(1.15042 -0.0133898 -9.37808e-22)
(1.15447 -0.0131726 2.4825e-22)
(1.1585 -0.0129568 3.60669e-22)
(1.16251 -0.0127417 -7.93324e-23)
(1.16647 -0.0125267 -8.0649e-23)
(1.17037 -0.012311 1.25542e-22)
(1.11445 -0.0162351 -1.64013e-21)
(1.11833 -0.0159647 6.45049e-21)
(1.12225 -0.0157007 -3.31725e-21)
(1.12622 -0.0154427 2.16682e-21)
(1.13022 -0.0151906 1.53422e-21)
(1.13425 -0.0149437 -1.36353e-21)
(1.1383 -0.0147018 6.89776e-23)
(1.14237 -0.014464 -1.9544e-21)
(1.14645 -0.0142298 -2.94406e-21)
(1.15052 -0.0139986 -2.94876e-22)
(1.15458 -0.0137696 1.54532e-21)
(1.15862 -0.0135422 1.54981e-22)
(1.16263 -0.0133156 -4.19093e-22)
(1.16659 -0.0130892 -1.37458e-22)
(1.1705 -0.0128622 -2.79656e-23)
(1.11446 -0.0169484 -3.66744e-21)
(1.11835 -0.0166654 -1.06344e-20)
(1.12229 -0.0163888 -3.39976e-21)
(1.12626 -0.0161183 1.31912e-21)
(1.13028 -0.0158537 -7.4606e-21)
(1.13432 -0.0155945 -1.59631e-21)
(1.13838 -0.0153402 2.31201e-21)
(1.14246 -0.0150902 2.79668e-21)
(1.14654 -0.014844 1.54292e-21)
(1.15062 -0.0146008 4.60561e-22)
(1.15469 -0.01436 -1.00171e-21)
(1.15874 -0.0141208 1.34304e-22)
(1.16275 -0.0138827 8.69981e-22)
(1.16672 -0.0136449 1.73759e-22)
(1.17063 -0.0134065 -4.43609e-23)
(1.11447 -0.0176556 4.6642e-21)
(1.11837 -0.01736 -5.47143e-21)
(1.12232 -0.0170709 2.24944e-21)
(1.12631 -0.0167878 -2.64379e-21)
(1.13034 -0.0165106 6.77729e-21)
(1.13439 -0.016239 -2.91876e-21)
(1.13847 -0.0159723 2.80757e-21)
(1.14255 -0.0157101 -4.01666e-21)
(1.14664 -0.0154517 2.07677e-21)
(1.15073 -0.0151965 2.53855e-22)
(1.15481 -0.0149437 8.42307e-22)
(1.15886 -0.0146929 -3.89051e-22)
(1.16287 -0.0144431 -5.52005e-22)
(1.16685 -0.0141938 -3.13185e-22)
(1.17077 -0.013944 4.92448e-23)
(1.11448 -0.0183568 -5.62658e-21)
(1.1184 -0.0180488 -3.04674e-21)
(1.12236 -0.017747 5.1829e-21)
(1.12636 -0.0174514 1.94326e-21)
(1.1304 -0.0171616 -3.97147e-21)
(1.13447 -0.0168774 6.35153e-22)
(1.13855 -0.0165983 -3.16906e-21)
(1.14265 -0.0163237 4.47658e-21)
(1.14675 -0.0160531 -1.97151e-21)
(1.15084 -0.0157857 -1.35911e-21)
(1.15492 -0.015521 -9.21581e-22)
(1.15898 -0.0152583 -5.98533e-22)
(1.163 -0.0149969 3.11837e-22)
(1.16698 -0.014736 3.43981e-22)
(1.1709 -0.0144747 -8.54357e-23)
(1.11449 -0.0190523 2.58366e-21)
(1.11843 -0.0187317 1.80462e-20)
(1.1224 -0.0184173 -1.26262e-20)
(1.12642 -0.018109 -8.79472e-21)
(1.13047 -0.0178067 -2.24621e-21)
(1.13454 -0.0175099 -1.97225e-21)
(1.13864 -0.0172182 2.66395e-21)
(1.14274 -0.0169312 -5.02517e-21)
(1.14685 -0.0166482 -1.36434e-21)
(1.15095 -0.0163686 9.71594e-22)
(1.15504 -0.0160919 4.78705e-22)
(1.1591 -0.0158173 6.35051e-23)
(1.16313 -0.0155441 -3.58201e-22)
(1.16711 -0.0152716 -4.87137e-22)
(1.17104 -0.0149989 -3.07296e-23)
(1.11451 -0.019742 5.14675e-22)
(1.11846 -0.0194089 -1.04472e-20)
(1.12245 -0.0190819 -3.19985e-23)
(1.12647 -0.018761 1.74362e-20)
(1.13054 -0.0184459 5.4976e-21)
(1.13462 -0.0181364 6.07216e-21)
(1.13873 -0.0178321 -4.46559e-22)
(1.14284 -0.0175325 2.13865e-21)
(1.14696 -0.0172371 -7.12167e-22)
(1.15107 -0.0169453 -7.33676e-22)
(1.15516 -0.0166564 -7.02693e-22)
(1.15923 -0.0163698 1.37221e-21)
(1.16326 -0.0160849 1.64058e-22)
(1.16725 -0.0158007 3.0034e-22)
(1.17118 -0.0155165 7.04455e-23)
(1.11453 -0.0204262 2.85742e-21)
(1.11849 -0.0200806 2.23951e-21)
(1.12249 -0.0197409 5.97139e-21)
(1.12653 -0.0194072 -8.43699e-21)
(1.13061 -0.0190794 -1.63361e-21)
(1.1347 -0.0187571 -1.65002e-21)
(1.13882 -0.0184401 -1.57555e-21)
(1.14294 -0.0181279 4.9031e-22)
(1.14707 -0.01782 9.55819e-22)
(1.15119 -0.0175158 2.26661e-21)
(1.15529 -0.0172147 1.73369e-21)
(1.15936 -0.0169161 -3.66091e-22)
(1.1634 -0.0166193 2.45463e-22)
(1.16739 -0.0163234 1.1427e-22)
(1.17132 -0.0160277 -2.92517e-23)
(1.11455 -0.0211049 1.67372e-21)
(1.11853 -0.0207467 3.4955e-22)
(1.12254 -0.0203943 4.85441e-21)
(1.1266 -0.0200478 -3.12403e-21)
(1.13068 -0.0197071 7.29063e-21)
(1.13479 -0.0193721 1.48149e-21)
(1.13891 -0.0190423 3.0416e-21)
(1.14305 -0.0187173 2.17627e-22)
(1.14718 -0.0183968 1.44141e-21)
(1.15131 -0.0180802 -2.83773e-21)
(1.15541 -0.0177668 -1.48962e-21)
(1.15949 -0.0174561 -4.61711e-22)
(1.16354 -0.0171474 1.33511e-22)
(1.16753 -0.0168398 1.34025e-22)
(1.17147 -0.0165325 3.37915e-25)
(1.11458 -0.0217782 1.36219e-21)
(1.11857 -0.0214075 -8.05191e-21)
(1.1226 -0.0210423 2.54125e-21)
(1.12666 -0.020683 1.27349e-20)
(1.13076 -0.0203293 -1.56258e-20)
(1.13488 -0.0199813 -1.88427e-21)
(1.13901 -0.0196386 -1.82627e-21)
(1.14315 -0.0193009 -1.77204e-21)
(1.1473 -0.0189677 1.58595e-21)
(1.15143 -0.0186385 -4.21442e-22)
(1.15554 -0.0183128 4.05474e-22)
(1.15963 -0.0179899 1.06748e-21)
(1.16367 -0.0176692 -8.87622e-22)
(1.16767 -0.0173499 -1.01909e-22)
(1.17161 -0.0170311 -3.97495e-23)
(1.11861 -0.0220629 9.67119e-21)
(1.12265 -0.0216849 4.23217e-21)
(1.12673 -0.0213126 -6.07702e-21)
(1.13084 -0.020946 1.32954e-20)
(1.13497 -0.0205849 -1.59391e-21)
(1.13911 -0.0202292 -4.04619e-21)
(1.14326 -0.0198786 2.60926e-22)
(1.14741 -0.0195326 -1.90001e-21)
(1.15155 -0.0191908 2.11955e-22)
(1.15567 -0.0188527 -3.78229e-22)
(1.15976 -0.0185176 -1.63458e-21)
(1.16381 -0.018185 -1.45761e-22)
(1.16782 -0.0178539 -3.32592e-22)
(1.17176 -0.0175234 1.08654e-22)
(1.11866 -0.0227131 -1.83747e-21)
(1.12271 -0.0223222 -8.63059e-21)
(1.1268 -0.0219369 -4.02582e-22)
(1.13092 -0.0215572 3.57749e-21)
(1.13506 -0.021183 -6.77527e-21)
(1.13921 -0.0208142 2.75733e-21)
(1.14337 -0.0204506 2.6227e-21)
(1.14753 -0.0200917 -6.08778e-22)
(1.15168 -0.0197372 2.65608e-21)
(1.1558 -0.0193866 -3.21067e-22)
(1.1599 -0.0190393 -3.34845e-22)
(1.16395 -0.0186946 1.03272e-21)
(1.16796 -0.0183517 3.83455e-22)
(1.17191 -0.0180096 -1.71661e-23)
(1.11871 -0.0233582 5.62043e-23)
(1.12277 -0.0229543 -9.10886e-21)
(1.12688 -0.0225559 -4.5476e-21)
(1.13101 -0.0221629 -4.3225e-21)
(1.13516 -0.0217755 8.9881e-22)
(1.13932 -0.0213936 3.71596e-21)
(1.14349 -0.0210168 -9.44182e-22)
(1.14765 -0.020645 7.61543e-22)
(1.1518 -0.0202778 1.19078e-21)
(1.15594 -0.0199146 5.21163e-22)
(1.16004 -0.019555 1.07075e-21)
(1.1641 -0.0191982 -6.99477e-22)
(1.16811 -0.0188435 -6.72045e-23)
(1.17206 -0.0184898 4.81131e-23)
(1.11876 -0.0239982 3.97545e-21)
(1.12284 -0.0235812 1.10669e-21)
(1.12695 -0.0231696 7.05851e-21)
(1.13109 -0.0227633 -5.33428e-21)
(1.13525 -0.0223626 2.65714e-21)
(1.13943 -0.0219673 -1.91562e-21)
(1.1436 -0.0215774 -1.89388e-21)
(1.14777 -0.0211926 1.35622e-21)
(1.15193 -0.0208125 -4.68797e-21)
(1.15607 -0.0204367 1.54531e-21)
(1.16018 -0.0200647 -5.43721e-22)
(1.16424 -0.0196959 7.28056e-22)
(1.16826 -0.0193293 -1.46392e-22)
(1.17221 -0.018964 -3.88471e-23)
(1.11882 -0.0246331 6.84706e-21)
(1.12291 -0.0242031 4.32369e-21)
(1.12703 -0.023778 -8.71356e-21)
(1.13118 -0.0233584 5.77369e-21)
(1.13535 -0.0229442 4.71565e-21)
(1.13954 -0.0225356 -6.85048e-22)
(1.14372 -0.0221324 4.48202e-22)
(1.1479 -0.0217345 5.89522e-22)
(1.15206 -0.0213415 1.77467e-21)
(1.15621 -0.020953 -2.13081e-21)
(1.16032 -0.0205686 8.89269e-22)
(1.16439 -0.0201876 -4.73792e-22)
(1.1684 -0.0198092 2.32594e-22)
(1.17236 -0.0194323 -5.55024e-23)
(1.11888 -0.0252632 -1.68971e-20)
(1.12298 -0.0248198 4.54371e-22)
(1.12712 -0.0243814 1.22966e-20)
(1.13128 -0.0239482 2.70404e-21)
(1.13546 -0.0235205 -3.06768e-22)
(1.13965 -0.0230984 -3.24497e-21)
(1.14384 -0.0226818 1.85988e-21)
(1.14803 -0.0222707 -2.81397e-21)
(1.1522 -0.0218647 -2.05591e-21)
(1.15634 -0.0214636 5.40093e-23)
(1.16046 -0.0210667 -8.30573e-22)
(1.16453 -0.0206735 7.21588e-22)
(1.16855 -0.0202832 -8.24755e-23)
(1.17251 -0.0198948 -4.31065e-24)
(1.11894 -0.0258883 -4.51948e-21)
(1.12306 -0.0254316 2.75517e-21)
(1.1272 -0.0249796 -2.2977e-21)
(1.13137 -0.0245328 -1.62583e-20)
(1.13556 -0.0240914 -1.94235e-21)
(1.13976 -0.0236557 -1.18206e-21)
(1.14396 -0.0232257 6.36438e-22)
(1.14815 -0.0228013 1.80088e-21)
(1.15233 -0.0223823 7.62597e-22)
(1.15648 -0.0219684 6.31854e-22)
(1.1606 -0.021559 -1.14925e-22)
(1.16468 -0.0211537 -7.04769e-22)
(1.1687 -0.0207515 -8.16676e-23)
(1.17267 -0.0203515 8.30873e-23)
(1.11901 -0.0265086 1.63465e-20)
(1.12313 -0.0260384 -3.10732e-21)
(1.12729 -0.0255727 -5.14896e-21)
(1.13147 -0.0251121 1.53845e-20)
(1.13567 -0.024657 1.08581e-21)
(1.13988 -0.0242076 9.52554e-21)
(1.14408 -0.0237641 -2.48474e-21)
(1.14828 -0.0233263 -1.79171e-21)
(1.15246 -0.0228942 5.55048e-22)
(1.15662 -0.0224675 1.19012e-21)
(1.16075 -0.0220457 2.6675e-22)
(1.16483 -0.0216281 1.42649e-24)
(1.16885 -0.0212141 2.52238e-22)
(1.17282 -0.0208025 -3.28728e-23)
(1.11908 -0.0271241 -4.29955e-21)
(1.12322 -0.0266402 -3.29848e-21)
(1.12738 -0.0261608 2.82094e-21)
(1.13158 -0.0256863 -9.62472e-21)
(1.13578 -0.0252174 2.06539e-21)
(1.14 -0.0247542 -3.37795e-21)
(1.14421 -0.024297 -9.78899e-22)
(1.14841 -0.0238458 3.62283e-22)
(1.1526 -0.0234006 -1.4575e-21)
(1.15676 -0.022961 -8.37327e-22)
(1.16089 -0.0225266 7.62457e-23)
(1.16497 -0.0220969 2.20187e-22)
(1.169 -0.021671 -5.26174e-22)
(1.17297 -0.0212478 1.47532e-23)
(1.11915 -0.0277348 -4.52109e-21)
(1.1233 -0.0272372 1.14189e-20)
(1.12748 -0.0267439 -2.87257e-21)
(1.13168 -0.0262554 1.05949e-20)
(1.13589 -0.0257725 3.0517e-21)
(1.14012 -0.0252954 -8.52756e-21)
(1.14434 -0.0248245 2.08744e-21)
(1.14855 -0.0243599 -2.08144e-21)
(1.15274 -0.0239014 4.89529e-21)
(1.1569 -0.0234489 -1.68621e-21)
(1.16103 -0.023002 7.67046e-22)
(1.16512 -0.0225601 3.5364e-22)
(1.16915 -0.0221223 4.90402e-22)
(1.17313 -0.0216876 -3.56722e-23)
(1.11923 -0.0283409 1.0146e-20)
(1.12339 -0.0278294 -7.83921e-21)
(1.12758 -0.027322 -4.10771e-21)
(1.13179 -0.0268194 -2.6669e-21)
(1.13601 -0.0263224 -2.50544e-22)
(1.14024 -0.0258314 5.07128e-21)
(1.14446 -0.0253466 -3.2223e-22)
(1.14868 -0.0248684 2.46956e-21)
(1.15288 -0.0243967 -2.49601e-22)
(1.15705 -0.0239313 1.3893e-21)
(1.16118 -0.0234718 -1.21414e-21)
(1.16527 -0.0230177 -7.12347e-22)
(1.16931 -0.0225681 -1.2392e-22)
(1.17328 -0.0221219 -3.47353e-23)
(1.11931 -0.0289423 -2.54711e-21)
(1.12348 -0.0284168 3.99678e-21)
(1.12768 -0.0278952 1.0723e-20)
(1.1319 -0.0273784 -6.8324e-21)
(1.13613 -0.0268671 9.40411e-22)
(1.14036 -0.026362 7.82634e-21)
(1.14459 -0.0258634 1.15227e-21)
(1.14881 -0.0253716 -5.28455e-22)
(1.15302 -0.0248865 -2.06595e-21)
(1.15719 -0.0244082 -2.20043e-22)
(1.16133 -0.0239361 -8.42117e-23)
(1.16542 -0.0234698 -3.06347e-24)
(1.16946 -0.0230084 -3.26684e-22)
(1.17343 -0.0225507 -5.89941e-23)
(1.1194 -0.0295391 -5.50981e-21)
(1.12358 -0.0289994 -1.93452e-21)
(1.12778 -0.0284634 -1.25424e-20)
(1.13201 -0.0279323 7.8655e-21)
(1.13625 -0.0274067 -1.03694e-20)
(1.14049 -0.0268874 -5.46109e-21)
(1.14472 -0.0263748 1.14497e-21)
(1.14895 -0.0258693 2.75353e-21)
(1.15316 -0.0253709 -5.46844e-22)
(1.15733 -0.0248796 5.18487e-22)
(1.16147 -0.024395 6.40698e-22)
(1.16557 -0.0239165 -4.18429e-23)
(1.16961 -0.0234432 4.14162e-22)
(1.17358 -0.0229742 1.73347e-22)
(1.11949 -0.0301313 5.66491e-21)
(1.12368 -0.0295773 -2.38951e-21)
(1.12789 -0.0290268 3.4181e-21)
(1.13212 -0.0284811 -4.56468e-21)
(1.13637 -0.0279411 6.90569e-21)
(1.14061 -0.0274075 -5.25985e-21)
(1.14486 -0.026881 -5.83237e-21)
(1.14909 -0.0263617 5.71181e-23)
(1.1533 -0.02585 -1.00307e-21)
(1.15748 -0.0253456 -4.28142e-22)
(1.16162 -0.0248484 -4.38289e-22)
(1.16572 -0.0243577 -4.65534e-22)
(1.16976 -0.0238728 -8.97891e-23)
(1.17374 -0.0233923 -1.3899e-22)
(1.11958 -0.030719 8.16773e-22)
(1.12378 -0.0301504 4.00129e-21)
(1.128 -0.0295853 -3.76843e-22)
(1.13224 -0.029025 3.349e-21)
(1.13649 -0.0284704 -1.65955e-21)
(1.14074 -0.0279225 6.35532e-21)
(1.14499 -0.0273818 5.0565e-21)
(1.14922 -0.0268488 -3.16813e-21)
(1.15344 -0.0263236 -4.51849e-22)
(1.15762 -0.0258063 -4.33346e-22)
(1.16177 -0.0252965 9.93488e-22)
(1.16586 -0.0247936 -8.98131e-23)
(1.16991 -0.0242969 -1.74065e-22)
(1.17389 -0.0238051 1.1046e-22)
(1.11968 -0.0313021 -9.73491e-21)
(1.12388 -0.0307188 -4.38589e-21)
(1.12811 -0.030139 4.89765e-21)
(1.13236 -0.0295639 -6.48798e-21)
(1.13662 -0.0289947 -4.24052e-21)
(1.14087 -0.0284323 -6.54693e-21)
(1.14513 -0.0278774 -2.54791e-21)
(1.14936 -0.0273306 2.02887e-21)
(1.15358 -0.0267919 1.63989e-21)
(1.15777 -0.0262616 4.32549e-22)
(1.16191 -0.0257392 2.69947e-22)
(1.16601 -0.0252243 1.2309e-21)
(1.17006 -0.0247159 1.23323e-22)
(1.17404 -0.0242128 -1.16617e-22)
(1.11978 -0.0318807 8.00668e-21)
(1.12399 -0.0312826 4.57726e-21)
(1.12823 -0.0306878 -1.0021e-20)
(1.13248 -0.0300978 1.18348e-22)
(1.13674 -0.0295138 7.46987e-22)
(1.14101 -0.0289369 1.06384e-20)
(1.14526 -0.0283678 -5.83645e-22)
(1.1495 -0.0278071 5.99773e-22)
(1.15372 -0.027255 8.56118e-22)
(1.15791 -0.0267116 -1.18518e-21)
(1.16206 -0.0261767 -2.33177e-21)
(1.16616 -0.0256496 -8.81991e-22)
(1.17021 -0.0251296 1.2228e-22)
(1.17419 -0.0246153 7.87427e-23)
(1.11988 -0.0324549 2.1952e-21)
(1.1241 -0.0318416 6.90568e-21)
(1.12835 -0.0312317 7.57883e-21)
(1.13261 -0.0306267 -4.65793e-22)
(1.13687 -0.0300279 -3.1291e-21)
(1.14114 -0.0294364 -1.07214e-21)
(1.1454 -0.028853 2.97141e-21)
(1.14964 -0.0282783 1.2756e-21)
(1.15386 -0.0277128 -8.60371e-22)
(1.15805 -0.0271564 1.95534e-21)
(1.16221 -0.0266089 9.012e-22)
(1.16631 -0.0260698 1.71385e-22)
(1.17036 -0.0255382 -2.19047e-22)
(1.17434 -0.0250127 -9.85481e-23)
(1.11999 -0.0330245 -1.83932e-21)
(1.12422 -0.032396 -7.69438e-21)
(1.12847 -0.0317709 2.0484e-21)
(1.13273 -0.0311508 1.06671e-21)
(1.13701 -0.030537 7.7888e-21)
(1.14128 -0.0299307 -6.72038e-21)
(1.14554 -0.029333 8.72192e-23)
(1.14978 -0.0287444 -1.36519e-21)
(1.15401 -0.0281654 3.20869e-22)
(1.1582 -0.0275959 1.16619e-21)
(1.16235 -0.027036 1.10669e-22)
(1.16646 -0.0264849 9.16177e-22)
(1.17051 -0.0259417 1.73219e-22)
(1.17449 -0.0254051 2.10455e-22)
(1.1201 -0.0335897 -1.29891e-20)
(1.12434 -0.0329458 2.15066e-21)
(1.12859 -0.0323053 -6.75613e-21)
(1.13286 -0.0316698 5.6297e-21)
(1.13714 -0.031041 -1.18905e-22)
(1.14141 -0.03042 9.28323e-22)
(1.14568 -0.0298078 2.531e-21)
(1.14993 -0.0292053 -4.33152e-22)
(1.15415 -0.0286127 1.15896e-21)
(1.15834 -0.0280303 -2.23092e-21)
(1.1625 -0.0274579 9.33784e-22)
(1.1666 -0.0268948 -7.5646e-22)
(1.17065 -0.0263401 -8.59616e-23)
(1.17464 -0.0257926 -7.15973e-23)
(1.12021 -0.0341504 1.52697e-20)
(1.12446 -0.033491 -6.37626e-21)
(1.12872 -0.0328349 8.55023e-21)
(1.13299 -0.032184 -5.89184e-21)
(1.13727 -0.03154 -1.56602e-21)
(1.14155 -0.0309042 3.22354e-21)
(1.14582 -0.0302776 -6.32772e-21)
(1.15007 -0.029661 -2.34667e-21)
(1.15429 -0.029055 -2.97702e-21)
(1.15849 -0.0284596 1.0328e-21)
(1.16264 -0.0278747 -7.16332e-22)
(1.16675 -0.0272997 -1.53042e-22)
(1.1708 -0.0267336 3.48114e-23)
(1.17479 -0.0261751 -8.22045e-23)
(1.12033 -0.0347067 -9.40454e-21)
(1.12458 -0.0340315 5.52971e-21)
(1.12885 -0.0333597 -9.72578e-21)
(1.13313 -0.0326933 1.73099e-21)
(1.13741 -0.032034 1.59399e-21)
(1.14169 -0.0313833 -3.18858e-21)
(1.14596 -0.0307422 1.02018e-21)
(1.15021 -0.0301116 7.45973e-22)
(1.15444 -0.0294921 1.11947e-21)
(1.15863 -0.0288838 -1.93814e-21)
(1.16279 -0.0282864 4.47765e-23)
(1.1669 -0.0276996 4.14267e-22)
(1.17095 -0.0271222 2.70476e-22)
(1.17494 -0.0265527 6.61238e-23)
(1.12045 -0.0352586 -2.86381e-22)
(1.12471 -0.0345674 -1.87708e-20)
(1.12898 -0.0338797 8.32811e-21)
(1.13326 -0.0331977 -2.88257e-22)
(1.13755 -0.0325231 -5.14833e-21)
(1.14183 -0.0318573 5.43598e-21)
(1.1461 -0.0312017 -1.37747e-23)
(1.15035 -0.0305572 -3.4726e-21)
(1.15458 -0.0299241 4.89169e-22)
(1.15878 -0.0293029 3.29081e-21)
(1.16293 -0.0286932 -5.59425e-23)
(1.16704 -0.0280945 -7.30518e-22)
(1.17109 -0.0275058 -1.83628e-22)
(1.17508 -0.0269256 4.67931e-23)
(1.12058 -0.035806 -7.95675e-21)
(1.12484 -0.0350987 1.79267e-20)
(1.12911 -0.034395 -1.02848e-20)
(1.1334 -0.0336972 7.18869e-22)
(1.13768 -0.0330071 2.92698e-21)
(1.14197 -0.0323264 -3.62971e-21)
(1.14624 -0.0316562 -4.33313e-21)
(1.1505 -0.0309976 6.66689e-21)
(1.15473 -0.0303511 -2.22904e-21)
(1.15892 -0.0297169 -2.67944e-21)
(1.16308 -0.029095 -8.31538e-22)
(1.16719 -0.0284845 3.12601e-22)
(1.17124 -0.0278846 3.86647e-23)
(1.17523 -0.0272937 -8.77056e-23)
(1.12071 -0.036349 2.45073e-21)
(1.12497 -0.0356253 -1.16141e-20)
(1.12925 -0.0349055 4.87936e-21)
(1.13353 -0.0341918 -5.83326e-21)
(1.13782 -0.0334862 1.81034e-21)
(1.14211 -0.0327904 3.46021e-22)
(1.14638 -0.0321057 7.18017e-21)
(1.15064 -0.031433 -3.43083e-21)
(1.15487 -0.0307731 1.45273e-21)
(1.15907 -0.0301261 2.23838e-23)
(1.16322 -0.0294918 1.35716e-21)
(1.16733 -0.0288697 7.09591e-22)
(1.17138 -0.0282587 -3.79844e-22)
(1.17537 -0.0276572 9.39241e-23)
(1.12084 -0.0368875 1.399e-20)
(1.12511 -0.0361474 3.14074e-21)
(1.12939 -0.0354113 6.51023e-21)
(1.13367 -0.0346816 7.93088e-22)
(1.13797 -0.0339604 1.53938e-21)
(1.14225 -0.0332494 2.57841e-21)
(1.14653 -0.0325501 -2.63045e-21)
(1.15078 -0.0318634 3.27958e-21)
(1.15501 -0.0311901 1.01787e-22)
(1.15921 -0.0305302 -5.26421e-22)
(1.16336 -0.0298838 -1.93063e-22)
(1.16747 -0.0292501 -1.0083e-21)
(1.17152 -0.028628 2.16364e-22)
(1.17551 -0.028016 -9.11958e-23)
(1.12098 -0.0374217 -3.1511e-22)
(1.12524 -0.0366649 1.71849e-20)
(1.12953 -0.0359123 -1.12468e-20)
(1.13382 -0.0351666 9.50057e-22)
(1.13811 -0.0344297 -5.36898e-21)
(1.14239 -0.0337035 -6.65404e-21)
(1.14667 -0.0329896 3.24624e-21)
(1.15092 -0.0322889 -2.37236e-21)
(1.15515 -0.0316021 -7.12831e-23)
(1.15935 -0.0309295 2.07024e-21)
(1.16351 -0.0302709 -1.93358e-22)
(1.16761 -0.0296257 7.52971e-22)
(1.17167 -0.0289927 4.63492e-22)
(1.17566 -0.0283702 6.5011e-23)
(1.12111 -0.0379515 -3.71313e-21)
(1.12538 -0.0371778 -1.81278e-20)
(1.12967 -0.0364086 1.21404e-20)
(1.13396 -0.0356467 2.60788e-22)
(1.13825 -0.034894 6.10454e-21)
(1.14254 -0.0341527 1.2901e-21)
(1.14681 -0.0334241 7.6145e-22)
(1.15107 -0.0327094 1.70979e-21)
(1.1553 -0.0320093 1.53279e-21)
(1.15949 -0.031324 9.0209e-22)
(1.16365 -0.0306533 1.41111e-21)
(1.16775 -0.0299966 -8.94502e-22)
(1.17181 -0.0293527 -1.91002e-22)
(1.1758 -0.0287199 -1.09686e-22)
(1.12126 -0.038476 1.54326e-20)
(1.12553 -0.0376854 1.82867e-21)
(1.12981 -0.0368996 -9.45946e-21)
(1.1341 -0.0361214 6.93354e-21)
(1.1384 -0.0353531 -4.41886e-21)
(1.14268 -0.0345966 -9.15263e-22)
(1.14696 -0.0338534 -3.65681e-21)
(1.15121 -0.0331248 -2.21141e-21)
(1.15544 -0.0324114 2.59224e-22)
(1.15963 -0.0317134 -2.53007e-21)
(1.16379 -0.0310308 -3.19886e-22)
(1.16789 -0.0303628 7.81245e-22)
(1.17195 -0.0297082 -6.6251e-22)
(1.17594 -0.0290651 -9.12396e-24)
(1.1214 -0.0389953 -8.2249e-21)
(1.12567 -0.0381875 -9.12066e-21)
(1.12996 -0.037385 2.50643e-22)
(1.13425 -0.0365905 -3.50519e-21)
(1.13854 -0.0358065 5.17322e-22)
(1.14283 -0.0350348 1.52864e-21)
(1.1471 -0.0342771 7.08186e-22)
(1.15135 -0.0335347 -9.618e-22)
(1.15558 -0.0328081 -2.81077e-21)
(1.15977 -0.0320977 6.14847e-22)
(1.16393 -0.0314032 -1.69455e-21)
(1.16803 -0.030724 -7.2969e-22)
(1.17208 -0.0300589 5.82131e-22)
(1.17607 -0.0294059 1.32564e-22)
(1.12155 -0.0395156 -2.45957e-20)
(1.12582 -0.0386898 6.51414e-21)
(1.1301 -0.0378697 1.64561e-20)
(1.1344 -0.0370582 5.2178e-21)