2 	-3.98637 	-1.38722e-17 	-0.071626
2 	-3.9593 	-1.34474e-17 	-0.0716571
2 	-3.93259 	-1.63192e-17 	-0.071722
2 	-3.90625 	-1.64159e-17 	-0.0718033
2 	-3.88027 	-1.18294e-17 	-0.0718987
2 	-3.85464 	-8.45773e-18 	-0.072009
2 	-3.82936 	-9.07645e-18 	-0.072134
2 	-3.80442 	-7.61403e-18 	-0.0722728
2 	-3.77982 	-3.37659e-18 	-0.072425
2 	-3.75555 	-8.74385e-19 	-0.07259
2 	-3.73161 	-8.01323e-19 	-0.0727671
2 	-3.7082 	1.69921e-18 	-0.072956
2 	-3.69648 	4.16334e-18 	-0.0718311
2 	-3.6847 	7.28584e-18 	-0.0720296
2 	-3.66172 	7.28584e-18 	-0.0722384
2 	-3.63904 	7.28584e-18 	-0.072457
2 	-3.61667 	5.89806e-18 	-0.0726848
2 	-3.5946 	4.85723e-18 	-0.0729216
2 	-3.57282 	6.93889e-18 	-0.0731667
2 	-3.55134 	5.89806e-18 	-0.0734199
2 	-3.53015 	4.51028e-18 	-0.0736806
2 	-3.50924 	1.38778e-18 	-0.0739485
2 	-3.48862 	1.38778e-18 	-0.0742232
2 	-3.46827 	2.42861e-18 	-0.0745042
2 	-3.44819 	3.46945e-18 	-0.0747913
2 	-3.42838 	1.38778e-18 	-0.075084
2 	-3.40884 	-3.46945e-18 	-0.0753819
2 	-3.38955 	-3.46945e-18 	-0.0756847
2 	-3.37053 	1.38778e-18 	-0.0759921
2 	-3.35176 	1.73472e-18 	-0.0763037
2 	-3.33324 	-1.38778e-18 	-0.0766191
2 	-3.31497 	-3.85186e-34 	-0.076938
2 	-3.29694 	1.73472e-18 	-0.0772602
2 	-3.27915 	-3.85186e-34 	-0.0775851
2 	-3.2616 	-4.45864e-18 	-0.0779127
2 	-3.24428 	-8.51882e-18 	-0.0782424
2 	-3.2272 	-1.02592e-17 	-0.0785741
2 	-3.21034 	-1.32795e-17 	-0.0789073
2 	-3.1937 	-1.54329e-17 	-0.0792419
2 	-3.17729 	-1.43342e-17 	-0.0795775
2 	-3.16109 	-1.68789e-17 	-0.0799138
2 	-3.14511 	-2.02048e-17 	-0.0802506
2 	-3.12933 	-2.11892e-17 	-0.0805875
2 	-3.11377 	-2.13068e-17 	-0.0809243
2 	-3.09842 	-1.96902e-17 	-0.0812607
2 	-3.08326 	-1.8768e-17 	-0.0815964
2 	-3.06831 	-2.13157e-17 	-0.0819313
2 	-3.05356 	-2.68129e-17 	-0.082265
2 	-3.039 	-2.88411e-17 	-0.0825973
2 	-3.02463 	-2.89616e-17 	-0.0829278
2 	-3.01045 	-3.48072e-17 	-0.0832565
2 	-2.99646 	-4.06533e-17 	-0.0835831
2 	-2.98265 	-4.16426e-17 	-0.0839072
2 	-2.96902 	-3.8469e-17 	-0.0842285
2 	-2.95557 	-3.84184e-17 	-0.084547
2 	-2.9423 	-3.9756e-17 	-0.0848635
2 	-2.9292 	-3.79716e-17 	-0.0851775
2 	-2.91628 	-3.65346e-17 	-0.0854806
2 	-2.90352 	-3.64859e-17 	-0.0857664
2 	-2.89297 	-3.64454e-17 	-0.086094
2 	-2.88672 	-3.36536e-17 	-0.0847634
2 	-2.87849 	-2.91434e-17 	-0.0852502
2 	-2.87095 	-2.63678e-17 	-0.090254
2 	-2.81118 	-2.32453e-17 	-0.091727
2 	-2.69742 	-1.97029e-17 	-0.0930204
2 	-2.58953 	-2.04245e-17 	-0.094117
2 	-2.53345 	-2.16342e-17 	-0.0949948
2 	-2.48346 	-1.98717e-17 	-0.104462
2 	-2.38935 	-1.82922e-17 	-0.106089
2 	-2.29619 	-1.99055e-17 	-0.107678
2 	-2.22264 	-2.27769e-17 	-0.109241
2 	-2.1791 	-2.42861e-17 	-0.118291
2 	-2.12186 	-2.46331e-17 	-0.119177
2 	-2.04006 	-2.82337e-17 	-0.119915
2 	-1.96148 	-3.16061e-17 	-0.120514
2 	-1.89177 	-3.21688e-17 	-0.120988
2 	-1.85468 	-3.08781e-17 	-0.138761
2 	-1.81301 	-2.77556e-17 	-0.139727
2 	-1.7427 	-2.81025e-17 	-0.140585
2 	-1.67476 	-2.89302e-17 	-0.141335
2 	-1.60902 	-3.1585e-17 	-0.14198
2 	-1.54723 	-3.2492e-17 	-0.142519
2 	-1.51588 	-2.84495e-17 	-0.155081
2 	-1.48352 	-3.01842e-17 	-0.155255
2 	-1.42351 	-3.33067e-17 	-0.155334
2 	-1.36514 	-3.28008e-17 	-0.155324
2 	-1.30832 	-3.11877e-17 	-0.155231
2 	-1.25294 	-3.19659e-17 	-0.155062
2 	-1.19891 	-3.08905e-17 	-0.154824
2 	-1.15928 	-2.71504e-17 	-0.154525
2 	-1.13319 	-2.81043e-17 	-0.173645
2 	-1.09454 	-3.1572e-17 	-0.173305
2 	-1.04404 	-3.33067e-17 	-0.172909
2 	-0.994562 	-3.33067e-17 	-0.172466
2 	-0.946043 	-3.78487e-17 	-0.171981
2 	-0.898417 	-4.38982e-17 	-0.171463
2 	-0.851625 	-4.45796e-17 	-0.170916
2 	-0.805608 	-4.46706e-17 	-0.170349
2 	-0.760314 	-4.75531e-17 	-0.169767
2 	-0.715691 	-5.01041e-17 	-0.169178
2 	-0.689696 	-5.16085e-17 	-0.168586
2 	-0.667846 	-5.54071e-17 	-0.184879
2 	-0.628268 	-6.00214e-17 	-0.184294
2 	-0.585378 	-6.00214e-17 	-0.183724
2 	-0.542977 	-5.51642e-17 	-0.183174
2 	-0.501027 	-5.06539e-17 	-0.182647
2 	-0.459487 	-5.37764e-17 	-0.182146
2 	-0.418321 	-5.6205e-17 	-0.181677
2 	-0.377491 	-5.75928e-17 	-0.18124
2 	-0.336963 	-6.19106e-17 	-0.18084
2 	-0.296702 	-6.34854e-17 	-0.180478
2 	-0.256676 	-6.30663e-17 	-0.180157
2 	-0.21685 	-5.94586e-17 	-0.179878
2 	-0.177194 	-5.74896e-17 	-0.179644
2 	-0.137675 	-5.76146e-17 	-0.179455
2 	-0.0982637 	-5.79253e-17 	-0.179312
2 	-0.0589279 	-5.98093e-17 	-0.179216
2 	-0.0196376 	-6.17922e-17 	-0.179168
2 	0.0196376 	-6.10983e-17 	-0.179168
2 	0.0589279 	-5.91154e-17 	-0.179216
2 	0.0982637 	-5.82722e-17 	-0.179312
2 	0.137675 	-5.65738e-17 	-0.179455
2 	0.177194 	-5.39334e-17 	-0.179644
2 	0.21685 	-5.05681e-17 	-0.179878
2 	0.256676 	-4.56974e-17 	-0.180157
2 	0.296702 	-4.35768e-17 	-0.180478
2 	0.336963 	-4.25874e-17 	-0.18084
2 	0.377491 	-3.95517e-17 	-0.18124
2 	0.418321 	-4.12864e-17 	-0.181677
2 	0.459487 	-4.33681e-17 	-0.182146
2 	0.501027 	-4.23273e-17 	-0.182646
2 	0.542977 	-4.23273e-17 	-0.183174
2 	0.585378 	-4.54498e-17 	-0.183724
2 	0.628268 	-4.51028e-17 	-0.184294
2 	0.667846 	-4.45129e-17 	-0.184879
2 	0.689696 	-4.97349e-17 	-0.168586
2 	0.715691 	-5.18388e-17 	-0.169178
2 	0.760314 	-5.13695e-17 	-0.169768
2 	0.805608 	-5.23034e-17 	-0.170349
2 	0.851625 	-5.25594e-17 	-0.170916
2 	0.898417 	-4.87988e-17 	-0.171463
2 	0.946043 	-4.4831e-17 	-0.171982
2 	0.994562 	-4.16334e-17 	-0.172466
2 	1.04404 	-3.92048e-17 	-0.17291
2 	1.09454 	-3.71231e-17 	-0.173305
2 	1.13319 	-3.53649e-17 	-0.173646
2 	1.15928 	-3.4411e-17 	-0.154524
2 	1.19891 	-3.21048e-17 	-0.154824
2 	1.25294 	-3.09251e-17 	-0.155061
2 	1.30832 	-3.29332e-17 	-0.15523
2 	1.36514 	-3.26382e-17 	-0.155323
2 	1.42351 	-3.22659e-17 	-0.155333
2 	1.48352 	-3.50414e-17 	-0.155254
2 	1.51588 	-3.76443e-17 	-0.15508
2 	1.54723 	-4.0299e-17 	-0.142521
2 	1.60902 	-4.05188e-17 	-0.141982
2 	1.67476 	-4.09866e-17 	-0.141339
2 	1.7427 	-4.26742e-17 	-0.140588
2 	1.81301 	-4.12864e-17 	-0.139731
2 	1.85468 	-3.93275e-17 	-0.138765
2 	1.89177 	-3.81897e-17 	-0.120984
2 	1.96148 	-3.77643e-17 	-0.120509
2 	2.04006 	-3.75144e-17 	-0.119909
2 	2.12186 	-3.85109e-17 	-0.119171
2 	2.1791 	-4.07851e-17 	-0.118285
2 	2.22264 	-4.30922e-17 	-0.109258
2 	2.29619 	-4.85284e-17 	-0.107696
2 	2.38935 	-5.62827e-17 	-0.106108
2 	2.48346 	-5.57623e-17 	-0.104482
2 	2.53345 	-5.09328e-17 	-0.0949607
2 	2.58953 	-5.16496e-17 	-0.0940814
2 	2.69742 	-5.30096e-17 	-0.0929842
2 	2.81118 	-5.16948e-17 	-0.0916911
2 	2.87095 	-5.03625e-17 	-0.0902191
2 	2.87954 	-5.3485e-17 	-0.0852471
2 	2.88777 	-5.80119e-17 	-0.0846963
2 	2.89506 	-5.97708e-17 	-0.0860279
2 	2.90871 	-6.21796e-17 	-0.0856494
2 	2.92347 	-6.53584e-17 	-0.0853172
2 	2.93835 	-6.02108e-17 	-0.0849677
2 	2.95336 	-5.61042e-17 	-0.0846081
2 	2.96851 	-5.92837e-17 	-0.0842479
2 	2.98378 	-5.83001e-17 	-0.0838875
2 	2.99918 	-5.66229e-17 	-0.083526
2 	3.01472 	-5.73744e-17 	-0.0831638
2 	3.03038 	-5.63915e-17 	-0.0828012
2 	3.04618 	-5.62761e-17 	-0.0824386
2 	3.06212 	-6.10182e-17 	-0.0820763
2 	3.0782 	-6.31585e-17 	-0.0817147
2 	3.09441 	-6.04417e-17 	-0.081354
2 	3.11076 	-5.75517e-17 	-0.0809946
2 	3.12725 	-5.70905e-17 	-0.0806367
2 	3.14389 	-5.85378e-17 	-0.0802806
2 	3.16066 	-5.83373e-17 	-0.0799267
2 	3.17758 	-5.63155e-17 	-0.0795751
2 	3.19465 	-5.16919e-17 	-0.0792263
2 	3.21186 	-5.03645e-17 	-0.0788804
2 	3.22922 	-5.14659e-17 	-0.0785378
2 	3.24673 	-4.85886e-17 	-0.0781986
2 	3.26439 	-4.56087e-17 	-0.0778632
2 	3.2822 	-4.57967e-17 	-0.0775319
2 	3.30016 	-4.82253e-17 	-0.0772049
2 	3.31828 	-5.13478e-17 	-0.0768824
2 	3.33655 	-5.44703e-17 	-0.0765647
2 	3.35498 	-5.55112e-17 	-0.0762521
2 	3.37357 	-5.48173e-17 	-0.0759448
2 	3.39232 	-5.51642e-17 	-0.0756431
2 	3.41123 	-5.23886e-17 	-0.0753472
2 	3.4303 	-4.57967e-17 	-0.0750573
2 	3.44954 	-4.3715e-17 	-0.0747738
2 	3.46894 	-4.71845e-17 	-0.0744968
2 	3.48851 	-4.61436e-17 	-0.0742266
2 	3.50825 	-4.33681e-17 	-0.0739635
2 	3.52815 	-3.85109e-17 	-0.0737076
2 	3.54823 	-3.50414e-17 	-0.0734593
2 	3.56848 	-3.85109e-17 	-0.0732188
2 	3.5889 	-4.47559e-17 	-0.0729863
2 	3.6095 	-4.89192e-17 	-0.0727621
2 	3.63028 	-4.57967e-17 	-0.0725465
2 	3.65123 	-4.30211e-17 	-0.0723396
2 	3.67237 	-4.75314e-17 	-0.0721417
2 	3.68983 	-5.18893e-17 	-0.0719532
2 	3.70053 	-4.87787e-17 	-0.073079
2 	3.71517 	-4.48129e-17 	-0.0728988
2 	3.73685 	-4.34916e-17 	-0.0727288
2 	3.75872 	-4.14766e-17 	-0.0725692
2 	3.78077 	-4.11965e-17 	-0.0724204
2 	3.80302 	-4.02226e-17 	-0.0722827
2 	3.82545 	-3.68204e-17 	-0.0721563
2 	3.84809 	-3.65408e-17 	-0.0720415
2 	3.87091 	-4.25064e-17 	-0.0719387
2 	3.89394 	-5.00335e-17 	-0.0718482
2 	3.91716 	-5.16626e-17 	-0.0717699
2 	3.94058 	-4.86082e-17 	-0.0717031
2 	3.96421 	-4.59009e-17 	-0.0716495
2 	3.98803 	-4.62829e-17 	-0.0716248
