/*--------------------------------*- C++ -*----------------------------------*\
  =========                 |
  \\      /  F ield         | OpenFOAM: The Open Source CFD Toolbox
   \\    /   O peration     | Website:  https://openfoam.org
    \\  /    A nd           | Version:  7
     \\/     M anipulation  |
\*---------------------------------------------------------------------------*/
FoamFile
{
    version     2.0;
    format      ascii;
    class       surfaceScalarField;
    location    "15";
    object      phi;
}
// * * * * * * * * * * * * * * * * * * * * * * * * * * * * * * * * * * * * * //

dimensions      [0 3 -1 0 0 0 0];

internalField   nonuniform List<scalar> 
23915
(
-3.90994e-05
3.90988e-05
5.55969e-10
-0.000114152
7.50516e-05
7.32854e-10
-0.000209352
9.51993e-05
5.62288e-10
-0.000316577
0.000107225
2.65668e-10
-0.000432925
0.000116348
-1.01822e-10
-0.000557772
0.000124848
-5.56045e-10
-0.000691578
0.000133807
-1.12639e-09
-0.000835201
0.000143625
-1.83591e-09
-0.000989631
0.000154433
-2.6947e-09
-0.00115584
0.000166212
-3.69879e-09
-0.00133467
0.000178832
-4.82938e-09
-0.00152667
0.000192008
-6.04539e-09
-0.00173192
0.000205258
-7.27905e-09
-0.00194984
0.00021793
-8.43341e-09
-0.00217872
0.000228891
-9.38296e-09
-0.00241537
0.000236657
-9.96234e-09
-0.00265671
0.000241349
-9.98291e-09
-0.00289325
0.000236553
-9.29715e-09
-0.00312852
0.00023527
-7.80104e-09
0.000211205
-5.27968e-09
-0.00333972
-3.83322e-05
7.7431e-05
-0.000111988
0.000148707
-0.000205222
0.000188434
-0.000309804
0.000211807
-0.000422604
0.000229148
-0.000542705
0.000244949
-0.000670206
0.000261307
-0.000805529
0.000278948
-0.000949141
0.000298045
-0.00110139
0.000318461
-0.00126239
0.000339829
-0.00143185
0.000361474
-0.00160892
0.000382325
-0.00179201
0.000401021
-0.00197846
0.000415336
-0.00216339
0.000421587
-0.00234431
0.000422275
-0.00250536
0.000397604
-0.00265861
0.000388513
0.000314562
-0.00276196
-3.68459e-05
0.000114277
-0.000107767
0.000219628
-0.000197139
0.000277807
-0.000296524
0.000311191
-0.000402365
0.000334988
-0.000513186
0.00035577
-0.000628404
0.000376525
-0.000747631
0.000398176
-0.000870372
0.000420786
-0.000995845
0.000443934
-0.00112286
0.000466844
-0.00124967
0.000488288
-0.00137379
0.000506445
-0.00149194
0.000519165
-0.0016001
0.000523495
-0.00169004
0.000511527
-0.00176262
0.00049486
-0.0017883
0.000423279
-0.00179563
0.000395847
0.000235463
-0.00171653
-3.47136e-05
0.000148991
-0.000101665
0.000286579
-0.000185408
0.00036155
-0.000277218
0.000403001
-0.000372942
0.000430712
-0.000470337
0.000453165
-0.00056789
0.000474078
-0.000664128
0.000494414
-0.000757296
0.000513955
-0.000845168
0.000531806
-0.00092493
0.000546605
-0.000993053
0.000556411
-0.00104513
0.000558524
-0.00107582
0.000549852
-0.00108025
0.000527927
-0.00104496
0.000476233
-0.000978075
0.000427978
-0.000834213
0.000279417
-0.000649055
0.000210688
-4.8666e-05
-0.000364926
-3.20394e-05
0.00018103
-9.3934e-05
0.000348474
-0.000170462
0.000438078
-0.000252556
0.000485095
-0.000335348
0.000513505
-0.000415675
0.000533491
-0.000490933
0.000549337
-0.000558405
0.000561886
-0.000614929
0.000570479
-0.000656712
0.000573589
-0.000679237
0.000569131
-0.000677165
0.000554339
-0.000644251
0.00052561
-0.000572886
0.000478487
-0.000458025
0.000413066
-0.000283483
0.000301692
-4.80263e-05
0.000192521
0.000263951
-3.25605e-05
0.000661086
-0.000186446
-0.000559709
0.00117213
-2.89519e-05
0.000209982
-8.48848e-05
0.000404407
-0.000152831
0.000506024
-0.000223348
0.000555613
-0.000290774
0.000580932
-0.000350934
0.00059365
-0.000400044
0.000598447
-0.000434069
0.000595911
-0.000448405
0.000584815
-0.000437702
0.000562886
-0.000395818
0.000527248
-0.000315728
0.000474249
-0.000189604
0.000399486
-9.64094e-06
0.000298524
0.000236573
0.000166852
0.000557321
-1.90565e-05
0.000955118
-0.000205277
0.00146546
-0.000542902
0.00205268
-0.000773669
-0.00131032
0.00280329
-2.55963e-05
0.000235578
-7.48674e-05
0.000453678
-0.000133107
0.000564263
-0.000190477
0.000612983
-0.000240477
0.000630931
-0.00027786
0.000631034
-0.000297614
0.0006182
-0.000294351
0.000592648
-0.00026202
0.000552483
-0.00019374
0.000494607
-8.18349e-05
0.000415342
8.2254e-05
0.00031016
0.000308197
0.000173542
0.000605072
1.64956e-06
0.000984929
-0.000213004
0.0014567
-0.000490823
0.00202749
-0.00077607
0.00272497
-0.00124038
0.00350608
-0.00155478
-0.00228167
0.00447743
-2.21254e-05
0.000257704
-6.42488e-05
0.000495801
-0.000111902
0.000611916
-0.000154828
0.00065591
-0.000185649
0.000661752
-0.000197997
0.000643382
-0.00018556
0.000605764
-0.000141532
0.00054862
-5.8348e-05
0.000469299
7.24569e-05
0.000363802
0.00026012
0.000227679
0.000514646
5.56339e-05
0.000847597
-0.000159409
0.00126655
-0.000417308
0.00178998
-0.00073643
0.00241464
-0.00111549
0.00316196
-0.00152339
0.00403715
-0.00211556
0.00500598
-0.00252362
-0.00342925
0.00615356
-1.86897e-05
0.000276393
-5.3388e-05
0.000530499
-8.97997e-05
0.000648327
-0.000117205
0.000683314
-0.000127287
0.000671835
-0.00011246
0.000628555
-6.4975e-05
0.000558279
2.35687e-05
0.000460076
0.000162439
0.000330428
0.000361868
0.000164373
0.000632745
-4.31974e-05
0.000986357
-0.000297978
0.00143568
-0.000608729
0.00198635
-0.000967982
0.00265885
-0.00140893
0.00343984
-0.00189648
0.00435685
-0.0024404
0.0053818
-0.00314051
0.00651532
-0.00365715
-0.0046739
0.00775998
-1.54273e-05
0.000291821
-4.26093e-05
0.000557681
-6.73088e-05
0.000673027
-7.82456e-05
0.000694251
-6.60479e-05
0.000659637
-2.17197e-05
0.000584227
6.41891e-05
0.00047237
0.000201989
0.000322277
0.000402956
0.00012946
0.000679262
-0.000111932
0.00104329
-0.000407229
0.00150705
-0.000761734
0.0020824
-0.00118407
0.00277372
-0.00165931
0.00359256
-0.00222777
0.00452146
-0.00282538
0.00557971
-0.00349865
0.00670234
-0.00426315
0.00793691
-0.00489171
-0.00590893
0.00917194
-1.24546e-05
0.000304275
-3.21758e-05
0.000577403
-4.48073e-05
0.000685659
-3.83351e-05
0.000687779
-2.12229e-06
0.000623424
7.46036e-05
0.000507501
0.000203368
0.000343606
0.000396815
0.00012883
0.000668473
-0.000142198
0.00103223
-0.000475686
0.00150094
-0.000875939
0.00208549
-0.00134629
0.00279199
-0.00189057
0.00362207
-0.00248939
0.00456831
-0.003174
0.00561148
-0.00386855
0.00674935
-0.00463652
0.0078976
-0.0054114
0.00912593
-0.00612004
-0.00702961
0.0102466
-9.85688e-06
0.000314132
-2.22626e-05
0.000589808
-2.24919e-05
0.000685888
2.49074e-06
0.000662796
6.49739e-05
0.000560941
0.000177917
0.000394557
0.000355512
0.000166011
0.000613038
-0.000128696
0.000966027
-0.000495187
0.00142881
-0.000938465
0.00201204
-0.00145917
0.00272148
-0.00205573
0.00355238
-0.00272147
0.00449782
-0.00343483
0.0055291
-0.00420529
0.00662385
-0.0049633
0.00775374
-0.0057664
0.00884629
-0.00650395
0.009955
-0.00722875
-0.00797355
0.0108989
-7.68065e-06
0.000321813
-1.29308e-05
0.000595059
-3.60566e-07
0.000673318
4.46202e-05
0.000617816
0.00013638
0.000469181
0.000290746
0.000240192
0.000524989
-6.82324e-05
0.000856855
-0.000460562
0.00130248
-0.000940811
0.00187355
-0.00150953
0.00257386
-0.00215948
0.0033982
-0.00288007
0.00432714
-0.00365041
0.00533967
-0.00444736
0.00639144
-0.00525706
0.00745764
-0.0060295
0.00849439
-0.00680316
0.00946211
-0.00747166
0.0103867
-0.0081533
-0.00873634
0.0111494
-5.92978e-06
0.000327742
-4.08537e-06
0.000593214
2.1995e-05
0.000647237
8.89536e-05
0.000550857
0.000214096
0.000344039
0.000416684
3.76036e-05
0.000717089
-0.000368638
0.00113418
-0.000877656
0.00168138
-0.00148801
0.00236253
-0.00219068
0.00316867
-0.00296562
0.00407856
-0.00378997
0.00505763
-0.00462948
0.00607175
-0.00546149
0.00707215
-0.00625746
0.00803805
-0.0069954
0.00892882
-0.00769393
0.00974098
-0.00828382
0.010486
-0.0088983
-0.00937274
0.0111224
-4.5678e-06
0.00033231
4.39446e-06
0.000584252
4.50823e-05
0.000606549
0.000136916
0.000459023
0.00030089
0.000180065
0.000560088
-0.000221594
0.000936972
-0.000745522
0.00144826
-0.00138895
0.00209909
-0.00213884
0.00287906
-0.00297065
0.0037619
-0.00384845
0.00470972
-0.00473779
0.00567812
-0.00559787
0.0066285
-0.00641187
0.00752147
-0.00715043
0.00834864
-0.00782256
0.00908561
-0.0084309
0.00975867
-0.00895688
0.0103703
-0.00950997
-0.00992385
0.0109214
-3.4659e-06
0.000335776
1.29112e-05
0.000567875
6.98676e-05
0.000549593
0.000190461
0.00033843
0.000400137
-2.96104e-05
0.000725387
-0.000546845
0.00118793
-0.00120807
0.00179665
-0.00199766
0.00254146
-0.00288366
0.00339285
-0.00382204
0.00430748
-0.00476308
0.00523704
-0.00566735
0.00613798
-0.00649882
0.0069793
-0.00725319
0.00774127
-0.00791239
0.00843048
-0.00851178
0.00904069
-0.00904111
0.00961387
-0.00953006
0.0101406
-0.0100367
-0.0104307
0.0106475
-2.45676e-06
0.000338233
2.20228e-05
0.000543395
9.75719e-05
0.000474044
0.000251966
0.000184035
0.000515426
-0.000293069
0.00091594
-0.000947359
0.00146914
-0.00176127
0.00216856
-0.00269709
0.00298333
-0.00369842
0.00386501
-0.00470372
0.00476029
-0.00565836
0.00562199
-0.00652906
0.0064189
-0.00729573
0.00713612
-0.00797041
0.00777503
-0.0085513
0.00835204
-0.00908878
0.00887349
-0.00956256
0.00938211
-0.0100387
0.00985487
-0.0105094
-0.010912
0.0103362
-1.32686e-06
0.00033956
3.23325e-05
0.000509736
0.000129647
0.000376729
0.000324039
-1.03571e-05
0.000649898
-0.000618928
0.00113247
-0.00142993
0.00177353
-0.00240233
0.00254434
-0.0034679
0.00339262
-0.0045467
0.00425838
-0.00556948
0.00509017
-0.00649015
0.00585362
-0.00729251
0.00653608
-0.00797819
0.00713963
-0.00857396
0.00768018
-0.00909185
0.00817593
-0.00958453
0.0086395
-0.0100261
0.00910403
-0.0105032
0.00954039
-0.0109458
-0.0113799
0.0100082
2.37238e-07
0.000339322
4.45495e-05
0.000465424
0.000167687
0.000253591
0.000409195
-0.000251865
0.0008053
-0.00101503
0.00137141
-0.00199604
0.00208695
-0.00311787
0.00289833
-0.00427928
0.00373854
-0.00538691
0.00454835
-0.00637929
0.00528955
-0.00723135
0.00594669
-0.00794964
0.00652451
-0.00855602
0.00703684
-0.00908628
0.00750531
-0.00956032
0.0079447
-0.0100239
0.00836993
-0.0104514
0.00879901
-0.0109323
0.00920857
-0.0113554
-0.0118418
0.00967053
1.93779e-06
0.000337385
5.94057e-05
0.000407956
0.000213306
9.9691e-05
0.000509399
-0.000547958
0.000980851
-0.00148649
0.00162387
-0.00263906
0.00238979
-0.00388379
0.00320495
-0.00509444
0.00399994
-0.00618189
0.00472821
-0.00710756
0.00537072
-0.00787386
0.00592992
-0.00850884
0.00642211
-0.00904821
0.00686621
-0.00953038
0.00728312
-0.00997723
0.0076831
-0.0104239
0.00808095
-0.0108492
0.00847785
-0.0113292
0.00885989
-0.0117374
-0.0123064
0.00932449
4.63306e-06
0.000332752
7.77708e-05
0.000334818
0.000267802
-9.03407e-05
0.000624915
-0.00090507
0.00117125
-0.00203282
0.00187467
-0.00334248
0.00265937
-0.00466849
0.00344322
-0.00587829
0.00416728
-0.00690595
0.00480442
-0.00774471
0.00535413
-0.00842357
0.00583143
-0.00898615
0.0062577
-0.00947447
0.00665198
-0.00992465
0.00703126
-0.0103565
0.00740232
-0.010795
0.00777763
-0.0112245
0.00815014
-0.0117017
0.00852857
-0.0121158
-0.0126694
0.00889151
8.09477e-06
0.000324657
0.0001001
0.000242813
0.000332482
-0.000322722
0.000755581
-0.00132817
0.00136998
-0.00264722
0.00211011
-0.00408261
0.00288177
-0.00544016
0.00360834
-0.00660486
0.00424975
-0.00754735
0.00479872
-0.00829368
0.00526861
-0.00889346
0.00568096
-0.00939851
0.00605746
-0.00985098
0.00641457
-0.0102818
0.00676477
-0.0107067
0.00711253
-0.0111427
0.00746603
-0.011578
0.00781621
-0.0120519
0.00818369
-0.0124833
-0.0130279
0.00854219
1.26945e-05
0.000311962
0.000127173
0.000128334
0.000407777
-0.000603326
0.000897662
-0.00181805
0.00156533
-0.00331489
0.0023142
-0.00483148
0.00304582
-0.00617178
0.00370005
-0.00725909
0.00425798
-0.00810528
0.00472844
-0.00876413
0.00513302
-0.00929803
0.00549495
-0.00976044
0.0058335
-0.0101895
0.00616153
-0.0106098
0.00648771
-0.0110329
0.00681462
-0.0114696
0.00714713
-0.0119105
0.00748153
-0.0123863
0.00782464
-0.0128264
-0.0133695
0.00816625
1.85819e-05
0.000293381
0.000159488
-1.25728e-05
0.00049321
-0.000937048
0.00104533
-0.00237018
0.00174539
-0.00401495
0.00247629
-0.00556237
0.00314937
-0.00684485
0.00372623
-0.00783595
0.00420679
-0.00858585
0.00461079
-0.00916814
0.00496322
-0.00965046
0.00528589
-0.0100831
0.00559444
-0.0104981
0.00589826
-0.0109136
0.00620306
-0.0113377
0.00651004
-0.0117766
0.00682357
-0.0122241
0.00713757
-0.0127003
0.00746364
-0.0131525
-0.0136995
0.00779369
2.58865e-05
0.000267494
0.000197368
-0.000184055
0.000587035
-0.00132671
0.00119094
-0.00297408
0.00189984
-0.00472385
0.00259131
-0.00625384
0.00319615
-0.00744969
0.00369772
-0.00833752
0.00411031
-0.00899844
0.00445963
-0.00951746
0.00477058
-0.00996141
0.00506186
-0.0103744
0.00534541
-0.0107816
0.00562771
-0.0111959
0.00591233
-0.0116223
0.00620012
-0.0120644
0.00649353
-0.0125175
0.00678961
-0.0129964
0.00709732
-0.0134602
-0.0140062
0.00740396
3.47316e-05
0.000232762
0.000240858
-0.000390181
0.000686135
-0.00177199
0.00132628
-0.00361423
0.00202163
-0.0054192
0.00265921
-0.00689142
0.00319325
-0.00798374
0.00362573
-0.00876999
0.00398048
-0.00935319
0.00428527
-0.00982225
0.00456271
-0.0102389
0.00482788
-0.0106395
0.00508938
-0.0110431
0.00535151
-0.011458
0.00561654
-0.0118874
0.00588485
-0.0123327
0.00615876
-0.0127914
0.00643525
-0.0132729
0.00672229
-0.0137472
-0.0142946
0.00701077
4.52541e-05
0.000187508
0.000289575
-0.000634503
0.000786227
-0.00226864
0.00144411
-0.00427211
0.00210755
-0.00608263
0.00268344
-0.00746732
0.00314897
-0.00844926
0.00352036
-0.00914138
0.00382672
-0.00965955
0.00409506
-0.0100906
0.00434464
-0.0104884
0.00458698
-0.0108819
0.00482805
-0.0112842
0.00507065
-0.0117006
0.00531615
-0.0121329
0.00556502
-0.0125816
0.0058187
-0.013045
0.00607549
-0.0135296
0.00634229
-0.014014
-0.014561
0.00660865
5.76165e-05
0.000129892
0.000342574
-0.000919459
0.000882394
-0.00280846
0.00153919
-0.0049289
0.00215763
-0.00670108
0.00266936
-0.00797905
0.00307148
-0.00885138
0.00339007
-0.00945997
0.00365608
-0.00992556
0.00389405
-0.0103286
0.00411956
-0.010714
0.00434104
-0.0111034
0.0045625
-0.0115057
0.00478575
-0.0119239
0.00501171
-0.0123588
0.00524072
-0.0128106
0.00547409
-0.0132784
0.00571055
-0.0137661
0.00595548
-0.014259
-0.014806
0.0062005
7.19906e-05
5.79012e-05
0.000398327
-0.0012458
0.000969786
-0.00337992
0.00160873
-0.00556785
0.0021742
-0.00726655
0.00262296
-0.0084278
0.00296808
-0.0091965
0.00324156
-0.00973345
0.0034737
-0.0101577
0.00368565
-0.0105405
0.0038895
-0.0109178
0.00409121
-0.0113051
0.00429343
-0.0117079
0.00449733
-0.0121278
0.00470355
-0.012565
0.00491251
-0.0130196
0.00512514
-0.013491
0.00534071
-0.0139817
0.00556371
-0.014482
-0.0150286
0.00578628
8.84893e-05
-3.05881e-05
0.000454855
-0.00161216
0.0010443
-0.00396937
0.00165215
-0.0061757
0.00216086
-0.00777526
0.00255015
-0.00881709
0.00284495
-0.0094913
0.00307996
-0.00996847
0.0032832
-0.0103609
0.00347212
-0.0107294
0.00365577
-0.0111015
0.00383827
-0.0114876
0.00402135
-0.011891
0.00420581
-0.0123122
0.00439213
-0.0127514
0.00458072
-0.0132082
0.00477233
-0.0136826
0.00496662
-0.014176
0.0051669
-0.0146822
-0.0152285
0.00536678
0.000107061
-0.000137649
0.000509923
-0.00201502
0.0011031
-0.00456255
0.00167047
-0.00674307
0.00212174
-0.00822653
0.00245627
-0.00915162
0.00270709
-0.00974212
0.00290911
-0.0101705
0.0030871
-0.0105389
0.00325495
-0.0108973
0.00341926
-0.0112658
0.00358281
-0.0116511
0.00374674
-0.0120549
0.00391161
-0.0124771
0.00407783
-0.0129176
0.00424583
-0.0133761
0.00441614
-0.013853
0.00458867
-0.0143485
0.00476599
-0.0148596
-0.0154052
0.00494272
0.000127396
-0.000265045
0.000561246
-0.00244887
0.00114471
-0.00514601
0.0016657
-0.00726406
0.00206101
-0.00862184
0.00234596
-0.00943657
0.00255845
-0.00995461
0.00273182
-0.0103439
0.00288715
-0.0106943
0.00303519
-0.0110453
0.00318061
-0.0114112
0.00332529
-0.0117958
0.00346999
-0.0121996
0.00361514
-0.0126223
0.00376111
-0.0130635
0.00390827
-0.0135233
0.00405705
-0.0140017
0.00420751
-0.014499
0.0043615
-0.0150136
-0.0155584
0.00451475
0.000148917
-0.000413962
0.000606666
-0.00290662
0.00116892
-0.00570826
0.0016404
-0.00773554
0.00198258
-0.00896402
0.0022231
-0.00967709
0.00240209
-0.0101336
0.00255011
-0.0104919
0.00268456
-0.0108287
0.00281355
-0.0111743
0.00294032
-0.011538
0.00306612
-0.0119216
0.00319151
-0.012325
0.00331684
-0.0127476
0.0034424
-0.0131891
0.00356855
-0.0136495
0.0036956
-0.0141288
0.00382369
-0.014627
0.00395415
-0.015144
-0.0156879
0.00408361
0.000170852
-0.000584814
0.000644333
-0.0033801
0.0011764
-0.00624033
0.00159732
-0.00815645
0.00188995
-0.00925666
0.00209085
-0.009878
0.00224032
-0.0102831
0.00236545
-0.010617
0.00248022
-0.0109435
0.00259059
-0.0112847
0.00269881
-0.0116462
0.00280571
-0.0120285
0.00291171
-0.012431
0.0030171
-0.012853
0.00312216
-0.0132942
0.00322715
-0.0137545
0.00333232
-0.014234
0.00343785
-0.0147326
0.00354461
-0.0152508
-0.0157933
0.00365002
0.000192367
-0.000777182
0.000672876
-0.00386061
0.0011684
-0.00673585
0.00153917
-0.00852722
0.00178614
-0.00950362
0.00195176
-0.0100436
0.00207488
-0.0104062
0.0021789
-0.010721
0.00227476
-0.0110394
0.00236677
-0.0113767
0.00245646
-0.0117359
0.00254443
-0.0121165
0.00263099
-0.0125175
0.00271638
-0.0129384
0.00280084
-0.0133786
0.00288459
-0.0138382
0.00296777
-0.0143171
0.00305059
-0.0148154
0.00313356
-0.0153337
-0.0158745
0.00321472
0.000212659
-0.000989841
0.00069151
-0.00433946
0.00114643
-0.00719077
0.00146853
-0.00884933
0.00167373
-0.00970882
0.00180781
-0.0101777
0.00190709
-0.0105055
0.00199124
-0.0108052
0.00206869
-0.0111168
0.00214247
-0.0114505
0.00221365
-0.011807
0.00228265
-0.0121855
0.00234973
-0.0125846
0.0024151
-0.0130037
0.00247892
-0.0134424
0.00254137
-0.0139006
0.00260253
-0.0143783
0.00266257
-0.0148754
0.00272172
-0.0153929
-0.0159312
0.00277849
0.000231003
-0.00122084
0.000700027
-0.00480849
0.00111215
-0.0076029
0.00138773
-0.00912491
0.00155487
-0.00987596
0.00166057
-0.0102834
0.00173791
-0.0105828
0.00180308
-0.0108703
0.00186241
-0.0111761
0.00191805
-0.0115061
0.00197072
-0.0118597
0.00202076
-0.0122355
0.00206836
-0.0126322
0.00211369
-0.0130491
0.00215688
-0.0134856
0.00219802
-0.0139418
0.00223716
-0.0144174
0.00227441
-0.0149127
0.00230976
-0.0154283
-0.0159636
0.0023421
0.000246754
-0.0014676
0.000698706
-0.00526044
0.00106721
-0.0079714
0.00129883
-0.00935653
0.00143131
-0.0100084
0.00151127
-0.0103634
0.0015681
-0.0106396
0.00161488
-0.0109171
0.00165629
-0.0112176
0.00169383
-0.0115436
0.00172802
-0.0118939
0.00175912
-0.0122666
0.00178727
-0.0126604
0.00181259
-0.0130744
0.00183518
-0.0135082
0.00185506
-0.0139617
0.00187223
-0.0144346
0.00188674
-0.0149272
0.0018984
-0.0154399
-0.0159715
0.00190633
0.000259351
-0.00172695
0.000688171
-0.00568926
0.00101322
-0.00829645
0.00120364
-0.00954695
0.00130452
-0.0101093
0.00136085
-0.0104197
0.00139823
-0.010677
0.00142703
-0.0109459
0.00145066
-0.0112412
0.00147015
-0.0115631
0.0014859
-0.0119097
0.00149809
-0.0122788
0.00150684
-0.0126691
0.00151223
-0.0130798
0.00151429
-0.0135103
0.00151299
-0.0139604
0.00150829
-0.0144299
0.00150017
-0.0149191
0.00148832
-0.0154281
-0.0159551
0.00147194
0.00026834
-0.00199529
0.00066928
-0.0060902
0.000951666
-0.00857884
0.00110369
-0.00969897
0.00117564
-0.0101813
0.00121004
-0.0104541
0.00122876
-0.0106958
0.00123987
-0.010957
0.00124581
-0.0112471
0.00124732
-0.0115646
0.00124469
-0.011907
0.00123806
-0.0122722
0.00122749
-0.0126586
0.00121304
-0.0130653
0.00119468
-0.0134919
0.00117233
-0.013938
0.00114592
-0.0144035
0.00111532
-0.0148885
0.00108016
-0.0153929
-0.0159147
0.00103972
0.000271857
-0.00226715
0.000640423
-0.00645877
0.000880891
-0.0088193
0.000997205
-0.00981528
0.00104269
-0.0102268
0.00105666
-0.010468
0.00105745
-0.0106965
0.00105121
-0.0109508
0.00103971
-0.0112356
0.00102346
-0.0115484
0.00100268
-0.0118862
0.000977461
-0.0122469
0.000947847
-0.012629
0.000913824
-0.0130313
0.00087534
-0.0134534
0.000832272
-0.013895
0.000784498
-0.0143557
0.00073182
-0.0148358
0.000673679
-0.0153348
-0.0158507
0.000609744
0.000272662
-0.00253981
0.000607653
-0.00679376
0.000808158
-0.00901981
0.000891425
-0.00989855
0.000912348
-0.0102477
0.000906777
-0.0104625
0.000889901
-0.0106797
0.00086634
-0.0109272
0.000837348
-0.0112066
0.000803289
-0.0115143
0.000764318
-0.0118473
0.000720494
-0.0122031
0.000671822
-0.0125803
0.000618245
-0.0129777
0.000559654
-0.0133948
0.00049589
-0.0138312
0.000426835
-0.0142867
0.000352275
-0.0147612
0.000271342
-0.0152538
-0.0157633
0.000183943
0.000269429
-0.00280924
0.0005695
-0.00709383
0.000731687
-0.009182
0.000784236
-0.0099511
0.000782251
-0.0102457
0.000757955
-0.0104382
0.000723729
-0.0106454
0.000682987
-0.0108865
0.000636612
-0.0111603
0.00058486
-0.0114626
0.000527837
-0.0117903
0.000465556
-0.0121408
0.000397985
-0.0125127
0.000325057
-0.0129048
0.000246556
-0.0133163
0.000162317
-0.013747
7.20636e-05
-0.0141964
-2.43758e-05
-0.0146648
-0.000126701
-0.0151515
-0.0156524
-0.000237645
0.000262366
-0.0030716
0.000526848
-0.00735831
0.000652452
-0.0093076
0.000676402
-0.00997505
0.000652905
-0.0102222
0.000610523
-0.0103958
0.000559204
-0.0105941
0.000501421
-0.0108287
0.000437794
-0.0110966
0.000368479
-0.0113933
0.000293557
-0.0117153
0.000212991
-0.0120603
0.000126664
-0.0124264
3.44758e-05
-0.0128126
-6.35604e-05
-0.0132183
-0.000167872
-0.0136427
-0.000278643
-0.0140856
-0.000396039
-0.0145474
-0.000521344
-0.0150262
-0.0155194
-0.00065433
0.000251785
-0.00332339
0.00048053
-0.00758705
0.000571324
-0.00939839
0.000568567
-0.00997229
0.000524708
-0.0101783
0.000464749
-0.0103358
0.000396553
-0.0105259
0.000321867
-0.010754
0.00024113
-0.0110159
0.000154376
-0.0113065
6.16384e-05
-0.0116226
-3.7025e-05
-0.0119616
-0.000141628
-0.0123218
-0.000252536
-0.0127017
-0.000370036
-0.0131008
-0.000494263
-0.0135184
-0.000625399
-0.0139545
-0.000763906
-0.0144089
-0.000910638
-0.0148795
-0.0153644
-0.00106566
0.000238079
-0.00356147
0.000431316
-0.00778029
0.000489055
-0.00945613
0.000461265
-0.0099445
0.000397996
-0.0101151
0.000320876
-0.0102587
0.00023598
-0.010441
0.000144524
-0.0106625
4.66674e-05
-0.010918
-5.71807e-05
-0.0112027
-0.000167174
-0.0115126
-0.000283584
-0.0118452
-0.000406551
-0.0121988
-0.000536168
-0.0125721
-0.000672747
-0.0129642
-0.000816514
-0.0133747
-0.000967719
-0.0138033
-0.00112685
-0.0142498
-0.00129452
-0.0147118
-0.0151878
-0.00147109
0.000221686
-0.00378315
0.00037991
-0.00793852
0.000406291
-0.00948251
0.000354936
-0.00989315
0.00027305
-0.0100332
0.000179097
-0.0101648
7.75503e-05
-0.0103395
-3.05649e-05
-0.0105544
-0.000144706
-0.0108039
-0.000265515
-0.0110819
-0.000392917
-0.0113852
-0.000526984
-0.0117111
-0.000667915
-0.0120579
-0.000815911
-0.0124241
-0.000971253
-0.0128089
-0.00113422
-0.0132117
-0.00130511
-0.0136324
-0.0014844
-0.0140705
-0.0016726
-0.0145236
-0.0149903
-0.00187015
0.000203054
-0.00398621
0.000326954
-0.00806242
0.00032357
-0.00947913
0.000249945
-0.00981952
0.000150085
-0.00993333
3.93201e-05
-0.010054
-7.81653e-05
-0.010222
-0.000202283
-0.0104303
-0.000333222
-0.010673
-0.000470854
-0.0109442
-0.000615312
-0.0112407
-0.000766742
-0.0115597
-0.000925353
-0.0118993
-0.0010914
-0.012258
-0.00126518
-0.0126351
-0.00144699
-0.0130299
-0.00163717
-0.0134422
-0.00183617
-0.0138715
-0.00204443
-0.0143153
-0.0147723
-0.0022624
0.000182616
-0.00416882
0.000273024
-0.00815282
0.00024136
-0.00944747
0.000146595
-0.00972476
2.88212e-05
-0.00981556
-9.73939e-05
-0.00992778
-0.000230944
-0.0100884
-0.000371371
-0.0102899
-0.000518638
-0.0105257
-0.000672814
-0.01079
-0.00083405
-0.0110795
-0.00100255
-0.0113912
-0.00117854
-0.0117233
-0.00136231
-0.0120743
-0.00155417
-0.0124433
-0.00175445
-0.0128296
-0.0019635
-0.0132332
-0.00218177
-0.0136532
-0.00240961
-0.0140875
-0.0145345
-0.00264744
0.000160782
-0.0043296
0.000218623
-0.00821066
0.000160077
-0.00938892
4.5029e-05
-0.00960971
-8.89589e-05
-0.00968157
-0.000231487
-0.00978526
-0.000380969
-0.00993896
-0.000537356
-0.0101335
-0.000700688
-0.0103624
-0.000871128
-0.0106196
-0.00104886
-0.0109018
-0.00123412
-0.0112059
-0.00142718
-0.0115302
-0.00162833
-0.0118731
-0.0018379
-0.0122337
-0.00205624
-0.0126113
-0.00228376
-0.0130057
-0.00252085
-0.0134161
-0.00276778
-0.0138405
-0.0142774
-0.00302491
0.000137947
-0.00446755
0.000164171
-0.00823689
8.00889e-05
-0.00930484
-5.41625e-05
-0.00947546
-0.000204416
-0.00953131
-0.000362813
-0.00962686
-0.00052795
-0.00977383
-0.000700016
-0.00996143
-0.000879143
-0.0101832
-0.00106555
-0.0104332
-0.00125948
-0.0107079
-0.00146119
-0.0110042
-0.00167096
-0.0113204
-0.00188914
-0.011655
-0.00211604
-0.0120068
-0.00235204
-0.0123753
-0.00259758
-0.0127601
-0.00285305
-0.0131607
-0.00311858
-0.013575
-0.0140015
-0.00339445
0.000114505
-0.00458206
0.000110094
-0.00823248
-3.0211e-07
-0.00919444
-0.000150995
-0.00932476
-0.000317265
-0.00936504
-0.000491161
-0.00945296
-0.000671688
-0.0095933
-0.000859154
-0.00977396
-0.00105378
-0.00998861
-0.00125586
-0.0102311
-0.00146565
-0.0104981
-0.00168347
-0.0107864
-0.00190962
-0.0110943
-0.00214445
-0.0114201
-0.00238829
-0.0117629
-0.00264154
-0.012122
-0.00290466
-0.012497
-0.00317805
-0.0128873
-0.00346171
-0.0132914
-0.0137074
-0.00375575
9.07981e-05
-0.00467285
5.71246e-05
-0.0081988
-7.4831e-05
-0.00906249
-0.000245295
-0.0091543
-0.00042732
-0.00918302
-0.00061639
-0.00926389
-0.000812015
-0.00939767
-0.00101458
-0.0095714
-0.0012244
-0.00977878
-0.00144182
-0.0100137
-0.00166715
-0.0102727
-0.00190072
-0.0105528
-0.00214288
-0.0108521
-0.00239398
-0.011169
-0.00265436
-0.0115025
-0.00292443
-0.0118519
-0.00320469
-0.0122167
-0.00349555
-0.0125964
-0.00379684
-0.0129901
-0.0133958
-0.00410848
6.70496e-05
-0.0047399
7.2205e-06
-0.00813898
-0.000149104
-0.00890616
-0.000337062
-0.00896634
-0.000534447
-0.00898563
-0.000738364
-0.00905998
-0.000948769
-0.00918727
-0.00116612
-0.00935404
-0.0013908
-0.0095541
-0.00162322
-0.00978128
-0.00186372
-0.0100322
-0.00211268
-0.0103039
-0.00237047
-0.0105943
-0.00263745
-0.0109021
-0.00291396
-0.011226
-0.00320043
-0.0115655
-0.00349739
-0.0119198
-0.00380528
-0.0122885
-0.0041237
-0.0126716
-0.0130672
-0.00445232
4.34e-05
-0.0047833
-4.73493e-05
-0.00804823
-0.000221732
-0.00873178
-0.000426104
-0.00876197
-0.000638492
-0.00877325
-0.000856947
-0.00884152
-0.0010818
-0.00896242
-0.00131359
-0.00912225
-0.00155278
-0.00931491
-0.00179983
-0.00953423
-0.00205514
-0.00977693
-0.00231911
-0.0100399
-0.00259214
-0.0103213
-0.00287459
-0.0106196
-0.00316683
-0.0109338
-0.00346927
-0.011263
-0.00378251
-0.0116065
-0.004107
-0.011964
-0.00444204
-0.0123366
-0.0127223
-0.00478697
2.05987e-05
-0.0048039
-9.84328e-05
-0.00792919
-0.000292281
-0.00853793
-0.000512342
-0.00854191
-0.000739342
-0.00854625
-0.000972006
-0.00860886
-0.00121095
-0.00872347
-0.00145683
-0.00887637
-0.00171016
-0.00906158
-0.00197147
-0.00927293
-0.00224119
-0.0095072
-0.00251978
-0.00976131
-0.00280763
-0.0100335
-0.00310514
-0.0103221
-0.00341267
-0.0106263
-0.00373066
-0.010945
-0.00405973
-0.0112775
-0.00440039
-0.0116234
-0.0047517
-0.0119853
-0.0123618
-0.00511216
1.89951e-07
-0.00480409
-0.00014721
-0.00778179
-0.000360559
-0.00832458
-0.000595724
-0.00830674
-0.000836901
-0.00830507
-0.00108342
-0.00836234
-0.00133609
-0.0084708
-0.00159567
-0.00861679
-0.00186275
-0.00879449
-0.00213792
-0.00899776
-0.00242166
-0.00922346
-0.00271445
-0.00946852
-0.00301671
-0.0097312
-0.00332886
-0.0100099
-0.00365126
-0.0103039
-0.00398434
-0.010612
-0.00432874
-0.0109331
-0.00468503
-0.0112671
-0.00505226
-0.0116181
-0.0119862
-0.00542783
-2.69692e-05
-0.00477712
-0.000194564
-0.0076142
-0.000426335
-0.00809281
-0.000676146
-0.00805693
-0.000931078
-0.00805014
-0.00119106
-0.00810236
-0.00145707
-0.0082048
-0.00172995
-0.00834391
-0.00201039
-0.00851406
-0.002299
-0.00870915
-0.00259633
-0.00892613
-0.0029029
-0.00916196
-0.00321915
-0.00941495
-0.0035455
-0.00968359
-0.00388236
-0.00996701
-0.00423016
-0.0102642
-0.00458943
-0.0105738
-0.00496066
-0.0108958
-0.00534334
-0.0112354
-0.0115952
-0.00573433
-5.07892e-05
-0.00472633
-0.0002403
-0.00742469
-0.000489514
-0.0078436
-0.000753516
-0.00779293
-0.00102179
-0.00778187
-0.00129483
-0.00782932
-0.00157376
-0.00792586
-0.00185953
-0.00805814
-0.00215289
-0.0082207
-0.00245452
-0.00840752
-0.00276501
-0.00861564
-0.0030849
-0.00884206
-0.00341469
-0.00908516
-0.00375482
-0.00934346
-0.00410575
-0.00961609
-0.00446796
-0.00990195
-0.00484188
-0.0101999
-0.00522786
-0.0105099
-0.00562518
-0.0108381
-0.011191
-0.00602938
-7.32166e-05
-0.00465312
-0.000284281
-0.00721362
-0.000550076
-0.0075778
-0.000827764
-0.00751524
-0.00110894
-0.00750069
-0.00139462
-0.00754364
-0.00168605
-0.00763444
-0.00198426
-0.00775993
-0.0022901
-0.00791486
-0.00260429
-0.00809332
-0.00292749
-0.00829245
-0.00326025
-0.00850929
-0.00360311
-0.0087423
-0.00395655
-0.00899002
-0.00432112
-0.00925152
-0.00469741
-0.00952565
-0.00508578
-0.0098115
-0.00548645
-0.0101092
-0.00590037
-0.0104241
-0.0107851
-0.00630628
-9.77439e-05
-0.00455537
-0.000330124
-0.00698124
-0.0006115
-0.00729643
-0.0009021
-0.00722464
-0.00119554
-0.00720725
-0.00149322
-0.00724596
-0.00179654
-0.00733112
-0.00210661
-0.00744986
-0.00242433
-0.00759714
-0.0027505
-0.00776715
-0.0030858
-0.00795715
-0.00343084
-0.00816425
-0.00378616
-0.00838698
-0.00415231
-0.00862387
-0.00452989
-0.00887394
-0.00491954
-0.00913601
-0.00532142
-0.00940962
-0.00573398
-0.00969665
-0.00615528
-0.0100028
-0.0103211
-0.0066193
-0.000118014
-0.00443736
-0.000370164
-0.00672909
-0.000666442
-0.00700015
-0.000969669
-0.00692142
-0.00127512
-0.0069018
-0.00158454
-0.00693654
-0.00189945
-0.00701621
-0.00222105
-0.00712826
-0.00255033
-0.00726786
-0.00288813
-0.00742935
-0.00323518
-0.0076101
-0.00359213
-0.00780731
-0.00395956
-0.00801955
-0.00433806
-0.00824536
-0.00472827
-0.00848374
-0.00513057
-0.0087337
-0.00554468
-0.00899551
-0.00597037
-0.00927096
-0.0064132
-0.00956
-0.00985156
-0.00688274
-0.000137371
-0.00429999
-0.000408252
-0.00645821
-0.00071866
-0.00668974
-0.00103397
-0.00660611
-0.00135094
-0.00658483
-0.0016716
-0.00661587
-0.00199761
-0.0066902
-0.00233025
-0.00679561
-0.0026706
-0.00692752
-0.00301953
-0.00708042
-0.00337782
-0.00725181
-0.00374616
-0.00743897
-0.00412519