/*--------------------------------*- C++ -*----------------------------------*\
  =========                 |
  \\      /  F ield         | OpenFOAM: The Open Source CFD Toolbox
   \\    /   O peration     | Website:  https://openfoam.org
    \\  /    A nd           | Version:  7
     \\/     M anipulation  |
\*---------------------------------------------------------------------------*/
FoamFile
{
    version     2.0;
    format      ascii;
    class       volVectorField;
    location    "15";
    object      U;
}
// * * * * * * * * * * * * * * * * * * * * * * * * * * * * * * * * * * * * * //

dimensions      [0 1 -1 0 0 0 0];

internalField   nonuniform List<vector> 
12100
(
(-0.0070864 0.00270076 -3.8897e-20)
(-0.0300375 0.00466411 -4.71855e-20)
(-0.0612814 0.00522286 5.91187e-21)
(-0.0892798 0.00522963 -1.53045e-20)
(-0.115272 0.00504878 7.47318e-20)
(-0.138527 0.00485501 2.36759e-20)
(-0.159741 0.0047037 -3.31678e-20)
(-0.179317 0.00460851 3.55604e-20)
(-0.19767 0.00456517 -4.88219e-20)
(-0.215097 0.00456327 2.85816e-20)
(-0.231815 0.0045887 1.49653e-20)
(-0.247951 0.00462266 5.45086e-21)
(-0.26354 0.00464087 -1.77938e-20)
(-0.278533 0.00461558 -1.01975e-20)
(-0.292752 0.0045056 -6.74043e-21)
(-0.305898 0.0042645 2.81683e-20)
(-0.317704 0.00391434 -3.33546e-20)
(-0.32739 0.00326321 -7.17615e-21)
(-0.334967 0.00278069 8.3339e-21)
(-0.338848 0.00169739 -2.35083e-20)
(-0.00737138 0.00804163 1.99251e-21)
(-0.0302441 0.0139037 -2.97593e-20)
(-0.0610349 0.0155757 -6.27105e-20)
(-0.0884289 0.0155927 5.0954e-20)
(-0.113665 0.0150438 3.26964e-20)
(-0.136011 0.0144506 5.0198e-21)
(-0.156131 0.0139793 9.59127e-20)
(-0.174392 0.0136707 -1.55023e-19)
(-0.191167 0.0135118 9.48904e-20)
(-0.206708 0.0134711 -7.43069e-20)
(-0.221185 0.0135067 8.89467e-21)
(-0.234673 0.0135629 -4.34345e-20)
(-0.247158 0.0135683 1.58512e-20)
(-0.258548 0.0134428 3.1992e-20)
(-0.268633 0.0130688 5.37113e-20)
(-0.277035 0.0122871 3.25289e-20)
(-0.283648 0.0112422 9.11491e-20)
(-0.287172 0.00912933 8.71434e-21)
(-0.288654 0.00783605 -7.54183e-20)
(-0.28393 0.00414018 5.6351e-20)
(-0.00793274 0.013205 -1.10543e-20)
(-0.0306562 0.022882 -4.26112e-20)
(-0.0605547 0.0256525 6.1496e-20)
(-0.0867539 0.0256705 4.77747e-20)
(-0.110497 0.0247349 -1.61797e-19)
(-0.131051 0.0237084 2.10959e-20)
(-0.149022 0.0228675 -1.61244e-19)
(-0.164714 0.0222797 1.31063e-20)
(-0.178423 0.0219231 -3.66448e-20)
(-0.190325 0.0217449 7.31872e-20)
(-0.200504 0.0216758 -2.28282e-20)
(-0.208957 0.0216261 2.62009e-20)
(-0.215584 0.0214812 -2.65735e-20)
(-0.220235 0.0211171 -5.10388e-20)
(-0.222683 0.0203678 -5.9307e-20)
(-0.222319 0.0188801 -7.28328e-20)
(-0.219709 0.0172193 -1.48326e-19)
(-0.211841 0.0131552 5.56683e-20)
(-0.203382 0.0115457 4.70823e-20)
(-0.182833 0.00437766 1.47699e-19)
(-0.00875413 0.018083 5.56839e-20)
(-0.0312708 0.0314343 2.25762e-19)
(-0.0598645 0.0352757 -7.41771e-20)
(-0.0843055 0.0352784 -1.52372e-19)
(-0.105851 0.033927 -8.84819e-20)
(-0.123779 0.0324151 1.23519e-19)
(-0.13862 0.0311284 1.55039e-19)
(-0.150596 0.0301615 -1.12515e-20)
(-0.15991 0.0294833 -3.49915e-21)
(-0.166644 0.0290199 -2.11519e-19)
(-0.170789 0.0286763 -1.00594e-19)
(-0.172255 0.0283324 4.71549e-20)
(-0.170857 0.0278367 5.86066e-21)
(-0.166377 0.0270328 4.67239e-20)
(-0.158702 0.0257762 -1.41112e-19)
(-0.146575 0.0233353 5.53592e-20)
(-0.132595 0.0212333 8.13816e-20)
(-0.109182 0.0147006 9.53227e-20)
(-0.0899475 0.0129401 -5.09907e-20)
(-0.048079 0.0026207 -1.19505e-19)
(-0.00981275 0.0225804 -1.51462e-19)
(-0.0320836 0.0394078 -4.4115e-20)
(-0.0589959 0.044276 1.32967e-19)
(-0.0811517 0.0442394 6.97853e-20)
(-0.0998398 0.0424349 3.43649e-19)
(-0.114369 0.0403726 -3.1982e-19)
(-0.125187 0.0385466 -1.80057e-19)
(-0.132429 0.0370791 -8.64281e-21)
(-0.136206 0.0359311 -3.2209e-21)
(-0.136506 0.0350086 4.31855e-20)
(-0.133238 0.034194 6.35187e-20)
(-0.126245 0.033341 -1.72094e-19)
(-0.11528 0.0322709 2.09392e-19)
(-0.100027 0.0308045 1.07425e-19)
(-0.0808167 0.028886 1.67426e-19)
(-0.0548036 0.0253136 -4.27932e-21)
(-0.0290639 0.0224609 -4.02646e-20)
(0.0129151 0.0144703 3.96281e-21)
(0.0415947 0.0107954 -6.19361e-20)
(0.10851 -0.000352271 -1.11393e-19)
(-0.011081 0.0266186 9.8579e-20)
(-0.0330872 0.0466659 8.05937e-21)
(-0.0579845 0.0524959 -2.47617e-19)
(-0.0773692 0.0523867 -1.23272e-19)
(-0.0925891 0.0500861 -4.05694e-19)
(-0.103007 0.0474024 -1.48327e-20)
(-0.108995 0.0449371 -2.13551e-20)
(-0.110608 0.0428416 -3.55929e-20)
(-0.10787 0.0410719 1.6017e-20)
(-0.100693 0.0395172 4.44254e-20)
(-0.0889244 0.0380425 3.53526e-19)
(-0.0723694 0.0364807 -2.08163e-21)
(-0.0507672 0.0346406 1.25359e-19)
(-0.0236243 0.0323705 -3.07542e-19)
(0.00782836 0.0294432 3.98179e-20)
(0.0491451 0.0249719 -6.36144e-20)
(0.0861615 0.0206561 -5.12137e-20)
(0.149844 0.0124834 4.82869e-20)
(0.183559 0.00556948 -1.07845e-19)
(0.280875 -0.00504234 1.09754e-19)
(-0.0125285 0.0301387 -2.51941e-19)
(-0.0342709 0.0530922 -4.52629e-19)
(-0.0568635 0.0597926 1.64626e-19)
(-0.0730319 0.0595661 -4.5979e-20)
(-0.0842149 0.0567233 3.65198e-19)
(-0.0898592 0.0533483 3.5249e-19)
(-0.0902709 0.0501487 -1.21405e-19)
(-0.0854338 0.0473085 1.69017e-19)
(-0.0752981 0.0447843 -2.31714e-19)
(-0.0597124 0.0424539 2.73088e-20)
(-0.0384845 0.0401746 -7.25991e-20)
(-0.0114014 0.0377648 1.14257e-19)
(0.0217732 0.0350187 -3.5553e-21)
(0.0617205 0.031918 -1.06737e-19)
(0.105899 0.027646 2.80296e-19)
(0.164126 0.0229061 -1.09014e-19)
(0.210684 0.0163283 -9.3108e-20)
(0.299728 0.00887231 1.45194e-19)
(0.334337 -0.000972597 5.48074e-20)
(0.464161 -0.0113058 2.39546e-19)
(-0.0141244 0.0331032 1.86725e-19)
(-0.0356189 0.0585924 2.08416e-19)
(-0.0556573 0.0660405 1.45481e-19)
(-0.068197 0.0656385 5.21328e-19)
(-0.0748019 0.0622062 -1.16076e-19)
(-0.0750303 0.058078 1.76512e-19)
(-0.0691306 0.0540661 2.30309e-19)
(-0.0570205 0.0503929 -2.90576e-19)
(-0.0385799 0.0470239 7.0416e-19)
(-0.0135984 0.0438354 9.13345e-21)
(0.0181448 0.04069 -4.53262e-19)
(0.0568677 0.0374041 -4.738e-20)
(0.102739 0.0337136 -4.43376e-19)
(0.156677 0.0299743 2.10579e-19)
(0.214391 0.0241667 -1.56795e-19)
(0.290518 0.0200409 1.64328e-19)
(0.346922 0.0105467 2.30987e-19)
(0.460328 0.00499965 9.07364e-20)
(0.496381 -0.00725841 -2.5467e-19)
(0.653626 -0.0170429 -2.23213e-19)
(-0.0158391 0.0354963 -9.15876e-20)
(-0.0371086 0.0630962 5.47298e-20)
(-0.0543728 0.0711339 -4.42276e-19)
(-0.0628889 0.0704824 -2.54829e-19)
(-0.064375 0.0664139 -2.04483e-19)
(-0.0585194 0.0614857 -1.14547e-19)
(-0.0455116 0.056613 -5.63237e-19)
(-0.0251941 0.0520655 1.02111e-19)
(0.00263357 0.0478306 -5.77568e-19)
(0.0382494 0.0437967 -1.65942e-19)
(0.0818891 0.0398493 1.04439e-19)
(0.133748 0.0358245 1.92503e-19)
(0.193866 0.0313325 -5.8337e-20)
(0.263067 0.0273944 2.2662e-19)
(0.336105 0.0202091 1.31457e-20)
(0.428707 0.0172712 -2.4722e-19)
(0.498565 0.00564143 1.80515e-20)
(0.627802 0.00210557 -3.52101e-19)
(0.670358 -0.0115409 6.55672e-20)
(0.840653 -0.0196159 -1.40105e-19)
(-0.0176463 0.0373226 3.498e-19)
(-0.038708 0.0665581 4.06156e-19)
(-0.0529901 0.0749894 1.07494e-19)
(-0.0570803 0.0739969 4.43725e-19)
(-0.0528674 0.0692494 1.2403e-19)
(-0.0401707 0.0634968 2.7831e-19)
(-0.0191013 0.0577593 3.14147e-19)
(0.0106003 0.052366 2.90583e-19)
(0.0492333 0.0473444 2.68037e-19)
(0.0971444 0.0426143 -2.21209e-19)
(0.154522 0.0380989 3.45148e-19)
(0.221427 0.0336803 3.39601e-19)
(0.297623 0.0288184 4.38895e-19)
(0.382945 0.0251129 -4.20218e-19)
(0.473059 0.0176017 3.84233e-20)
(0.577931 0.0155204 3.6424e-19)
(0.66448 0.0038607 -1.2907e-19)
(0.795463 0.00175875 2.09033e-21)
(0.849213 -0.0122482 -1.42659e-20)
(1.01073 -0.0177013 1.77759e-19)
(-0.0195234 0.0386049 -2.19134e-19)
(-0.0403727 0.0689571 -3.68872e-19)
(-0.0514516 0.077548 6.46598e-19)
(-0.0506706 0.0761068 -6.66717e-19)
(-0.0400852 0.0706454 -4.78639e-19)
(-0.0196191 0.064077 -2.06032e-19)
(0.0107342 0.0575347 -9.02703e-20)
(0.0513734 0.0514242 -4.9709e-19)
(0.102695 0.0458359 -2.93703e-19)
(0.165047 0.0407428 -4.69532e-20)
(0.23837 0.0361104 -1.49851e-19)
(0.3223 0.0318609 -9.98672e-20)
(0.415871 0.0273934 -2.3652e-19)
(0.517091 0.0242726 -1.18356e-19)
(0.623185 0.0179154 4.48914e-20)
(0.734773 0.0161938 -2.33875e-19)
(0.834618 0.00625975 2.55882e-20)
(0.95364 0.00487742 1.46637e-20)
(1.01629 -0.00869079 -1.76053e-19)
(1.14749 -0.0119906 1.18716e-19)
(-0.0214524 0.0393811 2.05105e-19)
(-0.0420414 0.0702948 1.63455e-19)
(-0.0496498 0.0787784 -7.51204e-19)
(-0.043462 0.0767669 -2.542e-19)
(-0.0256674 0.070573 2.70472e-19)
(0.00376345 0.063249 -1.43438e-19)
(0.0450104 0.0560544 3.91095e-19)
(0.0986222 0.0494956 3.7261e-19)
(0.165004 0.0437502 -4.88038e-19)
(0.244262 0.0388558 -1.53713e-19)
(0.335634 0.0347973 4.81692e-19)
(0.437785 0.0314652 -5.44584e-19)
(0.548147 0.0282929 -4.91474e-19)
(0.662883 0.0262008 6.83914e-19)
(0.778967 0.0218593 -1.49173e-19)
(0.890858 0.0204327 7.32003e-20)
(0.99246 0.0125507 1.04566e-19)
(1.09054 0.0111177 -9.4681e-20)
(1.15161 -0.00181975 2.58097e-19)
(1.2407 -0.00447819 3.2319e-19)
(-0.0234187 0.0396991 -6.57221e-19)
(-0.043631 0.0705931 -6.43342e-19)
(-0.0474151 0.07868 4.80966e-19)
(-0.0351341 0.0759691 3.06777e-19)
(-0.00904587 0.0690562 1.64261e-19)
(0.0309178 0.0611157 -1.34394e-19)
(0.0851511 0.0535537 -2.42759e-19)
(0.154268 0.0470075 1.22299e-19)
(0.238388 0.0417512 1.54658e-20)
(0.336813 0.0378557 2.43197e-19)
(0.447319 0.0352515 -2.74811e-19)
(0.566798 0.0336414 -1.17182e-19)
(0.690284 0.0324541 3.83654e-19)
(0.812629 0.031744 -5.00912e-19)
(0.928861 0.0293112 -2.7848e-20)
(1.03285 0.0280188 2.06873e-19)
(1.12229 0.0213182 -8.30835e-20)
(1.19531 0.0190463 -1.08327e-19)
(1.24306 0.00621696 1.36239e-20)
(1.29202 0.00277838 -1.46056e-19)
(-0.0254097 0.0396127 1.01644e-19)
(-0.0450288 0.0698899 6.75509e-19)
(-0.0445002 0.0772817 -2.12924e-19)
(-0.0252216 0.0737543 -2.75402e-20)
(0.0105891 0.0661917 -2.14311e-19)
(0.0631227 0.057889 -8.09065e-20)
(0.132948 0.0504316 7.26821e-20)
(0.220435 0.0446019 2.38751e-19)
(0.324766 0.040732 6.67578e-20)
(0.443479 0.0388022 -5.083e-19)
(0.571946 0.0385377 3.00562e-19)
(0.704546 0.0392231 1.72752e-19)
(0.834007 0.0401932 -2.24461e-19)
(0.954544 0.0406264 3.54409e-19)
(1.06019 0.0392976 2.75013e-19)
(1.14749 0.0373518 -7.08333e-20)
(1.21547 0.0306655 2.85934e-21)
(1.26336 0.0268651 -1.04631e-20)
(1.29282 0.0134322 -3.51751e-19)
(1.31331 0.00917723 -4.90354e-19)
(-0.0274123 0.039177 5.73871e-19)
(-0.0460906 0.06824 -1.67554e-19)
(-0.0405637 0.0746427 -4.31595e-19)
(-0.013088 0.07022 5.7755e-19)
(0.0343091 0.0621677 5.12474e-19)
(0.101974 0.0539272 3.71209e-19)
(0.190399 0.047291 3.41937e-19)
(0.299004 0.0431461 -1.17859e-19)
(0.424916 0.0417369 2.18143e-19)
(0.562695 0.0427022 2.06112e-19)
(0.704615 0.0453351 -1.72674e-19)
(0.842554 0.0483167 1.22547e-19)
(0.968259 0.0508822 1.05223e-19)
(1.07657 0.051522 -8.08818e-20)
(1.1631 0.0501245 1.91384e-19)
(1.22817 0.0464566 -2.13178e-19)
(1.27268 0.0391021 2.54582e-19)
(1.29941 0.0332729 5.00322e-19)
(1.31349 0.0193172 2.4955e-19)
(1.31752 0.0143544 3.9514e-19)
(-0.0294073 0.0384412 -1.81062e-19)
(-0.0466346 0.0657112 1.00669e-19)
(-0.0351643 0.0708569 2.50077e-19)
(0.00208833 0.0655275 -7.00723e-19)
(0.0634439 0.0572888 -1.1954e-19)
(0.149284 0.0497683 -5.99857e-19)
(0.259374 0.0449526 2.44856e-19)
(0.390922 0.0436648 -5.8725e-19)
(0.537517 0.0457488 2.29587e-19)
(0.689806 0.0501654 -5.43462e-19)
(0.837199 0.0555679 2.30108e-20)
(0.970445 0.0601014 6.7849e-20)
(1.08252 0.0630266 -1.15897e-19)
(1.17074 0.0626721 -2.94328e-19)
(1.23428 0.0600875 -6.24688e-21)
(1.27706 0.0540842 3.58453e-19)
(1.30184 0.0460248 -3.02355e-19)
(1.31402 0.0380536 -6.92248e-19)
(1.31825 0.0242799 -5.16109e-19)
(1.31459 0.0188946 1.94287e-19)
(-0.0313622 0.0374433 5.72903e-21)
(-0.046432 0.0623759 4.47457e-19)
(-0.0277552 0.0660562 -1.18777e-19)
(0.0213127 0.0599177 -4.07885e-20)
(0.0995291 0.0519997 1.3529e-19)
(0.206862 0.0461487 4.6776e-19)
(0.341076 0.0444061 -2.30475e-19)
(0.495365 0.0471492 -2.08034e-19)
(0.658482 0.0533597 1.37654e-19)
(0.81733 0.0610626 3.06746e-19)
(0.96014 0.0682867 -5.00337e-19)
(1.07905 0.0730481 3.80573e-19)
(1.17051 0.0749012 5.00169e-20)
(1.23561 0.0726512 1.30716e-19)
(1.27739 0.0682485 -2.87942e-19)
(1.30207 0.0600483 -8.32004e-20)
(1.31316 0.0516099 -7.78753e-20)
(1.31694 0.0416625 8.40151e-20)
(1.31566 0.0289257 3.02455e-19)
(1.30879 0.0228522 -6.41726e-19)
(-0.0332244 0.0362052 -4.8389e-20)
(-0.0452035 0.058313 -4.34908e-20)
(-0.0176808 0.0604099 5.05584e-19)
(0.0457538 0.053719 2.62806e-19)
(0.144189 0.0469036 -2.39469e-19)
(0.276144 0.0439819 6.92365e-20)
(0.435349 0.0466582 7.65885e-20)
(0.609111 0.0542517 6.79919e-19)
(0.781172 0.0644616 -5.73526e-19)
(0.936587 0.0744362 -8.14582e-19)
(1.06528 0.0819711 -8.03236e-19)
(1.16329 0.0855405 -1.78928e-19)
(1.23175 0.085283 4.94289e-20)
(1.27542 0.0808425 -2.81102e-19)
(1.29991 0.0745759 -2.36256e-20)
(1.31195 0.0648154 5.76599e-20)
(1.31476 0.0562772 -4.18071e-20)
(1.31414 0.0446122 5.79621e-19)
(1.30974 0.033677 1.06427e-20)
(1.30226 0.0262267 6.02424e-19)
(-0.034917 0.0347359 4.12371e-20)
(-0.0426177 0.0536087 -5.6557e-19)
(-0.00418196 0.0541212 1.49494e-19)
(0.0766969 0.0473597 -5.06659e-19)
(0.198929 0.0427665 6.47373e-19)
(0.35767 0.0442644 -4.38816e-19)
(0.540062 0.0524708 1.79174e-20)
(0.72658 0.0649852 -3.66442e-20)
(0.89777 0.0781734 -4.54622e-19)
(1.04016 0.0888168 1.11657e-18)
(1.1482 0.0951243 4.71919e-19)
(1.22314 0.0964946 -6.75859e-20)
(1.27033 0.0937592 -2.38421e-19)
(1.29688 0.0873465 -4.3094e-19)
(1.30922 0.0795283 -1.2103e-20)
(1.31331 0.0689422 -1.97822e-19)
(1.3115 0.0602844 1.71185e-19)
(1.30863 0.0473986 -8.74262e-20)
(1.30236 0.0388224 -6.68571e-19)
(1.29566 0.0286654 -2.61431e-19)
(-0.0363545 0.0330535 -2.97772e-19)
(-0.0382723 0.0483336 3.90414e-19)
(0.0135893 0.0474311 -3.44607e-19)
(0.115456 0.041386 -3.8047e-19)
(0.264807 0.040493 -7.09149e-19)
(0.450521 0.0478843 2.80641e-19)
(0.650929 0.0620716 -1.94794e-19)
(0.840864 0.0786287 -5.66482e-19)
(1.00137 0.0931273 4.92132e-19)
(1.12386 0.102781 -3.98004e-19)
(1.20879 0.106775 5.74156e-19)
(1.26218 0.10556 6.60442e-19)
(1.2921 0.100525 3.56108e-19)
(1.30633 0.0925767 5.43838e-19)
(1.31082 0.0836358 -9.16663e-20)
(1.31022 0.0727618 1.32509e-19)
(1.30601 0.0637806 -4.86871e-20)
(1.30194 0.0505717 3.00757e-19)
(1.29439 0.04413 1.48782e-19)
(1.28925 0.0297216 1.71256e-19)
(-0.0374323 0.0311524 1.55038e-18)
(-0.0317172 0.0425547 -3.96848e-19)
(0.036545 0.040644 3.51779e-19)
(0.163227 0.0364871 4.32528e-19)
(0.342012 0.0410319 6.68791e-19)
(0.551946 0.0553541 -3.55585e-19)
(0.762127 0.0750018 2.10017e-19)
(0.945456 0.0939525 -2.84646e-19)
(1.0877 0.107963 -5.25191e-19)
(1.18716 0.115387 2.72071e-19)
(1.24999 0.116599 -4.87207e-19)
(1.28543 0.112913 -3.08708e-19)
(1.30251 0.106009 3.51194e-20)
(1.30848 0.0969652 1.50021e-19)
(1.30819 0.0873006 -2.82155e-20)
(1.30496 0.0763893 2.67051e-19)
(1.2996 0.06701 2.89112e-20)
(1.29481 0.0544475 -6.97525e-19)
(1.28671 0.0485159 3.12023e-19)
(1.28258 0.0288396 -2.88739e-19)
(-0.0380136 0.0290169 -1.08894e-18)
(-0.0224669 0.0363715 4.7499e-19)
(0.0656348 0.0341308 -5.03219e-20)
(0.220881 0.0334661 -2.47453e-19)
(0.429426 0.0451467 -7.44398e-19)
(0.657499 0.0665614 5.3171e-19)
(0.867563 0.0902211 -4.84325e-19)
(1.03575 0.109637 2.14599e-19)
(1.15554 0.121714 2.65104e-19)
(1.23218 0.12627 -1.13135e-18)
(1.27595 0.124728 2.18102e-19)
(1.29757 0.118942 3.91675e-20)
(1.3057 0.110636 4.79418e-19)
(1.30643 0.100861 -5.82019e-20)
(1.30337 0.090762 -6.2784e-20)
(1.2987 0.0798778 -4.59667e-20)
(1.29284 0.070297 2.70183e-19)
(1.28754 0.0585742 2.0546e-19)
(1.27967 0.0507745 6.44205e-20)
(1.27562 0.037931 1.80445e-19)
(-0.0379454 0.0266321 -7.9472e-20)
(-0.00999068 0.0298851 -7.14679e-19)
(0.101799 0.028338 3.96498e-19)
(0.288707 0.0331627 2.64298e-19)
(0.524504 0.0531768 -2.16095e-19)
(0.761996 0.0807955 -6.73397e-19)
(0.962471 0.106506 4.55187e-19)
(1.10986 0.124683 -1.18284e-19)
(1.2062 0.13394 8.60396e-20)
(1.26233 0.135487 7.09105e-19)
(1.29082 0.131495 -3.80751e-19)
(1.30237 0.124043 -3.52801e-19)
(1.30456 0.114733 -3.24165e-19)
(1.30209 0.104489 -6.12526e-20)
(1.29748 0.0941233 -2.39978e-20)
(1.29205 0.0833139 2.19597e-19)
(1.28597 0.0737205 -1.15745e-19)
(1.28041 0.0620112 -1.34606e-19)
(1.2728 0.0555253 -3.08272e-19)
(1.26862 0.0412484 -2.0669e-19)
(-0.0370483 0.0239795 -3.3646e-20)
(0.00628128 0.0232227 4.18311e-19)
(0.145857 0.0238502 -7.42292e-19)
(0.366054 0.0363294 1.48704e-19)
(0.623425 0.0649224 5.17044e-19)
(0.860541 0.0970186 9.81676e-20)
(1.044 0.122815 1.56786e-19)
(1.16798 0.138529 2.84956e-19)
(1.24219 0.144585 -3.22722e-19)
(1.2811 0.1433 -2.40509e-19)
(1.29796 0.137263 4.48729e-19)
(1.3025 0.128545 8.34447e-19)
(1.30089 0.118537 9.29531e-20)
(1.29653 0.107989 -3.29984e-19)
(1.29107 0.0974543 1.23808e-20)
(1.28525 0.0867657 -2.83639e-19)
(1.27911 0.0769586 6.97963e-20)
(1.27339 0.0660532 -1.37383e-19)
(1.26607 0.058541 -5.21285e-19)
(1.26213 0.0459007 2.73394e-19)
(-0.0351215 0.0210466 8.16528e-20)
(0.0269518 0.0165645 7.85091e-19)
(0.198355 0.0213928 -2.41413e-19)
(0.451144 0.0433978 6.66932e-19)
(0.721829 0.079694 -5.49159e-19)
(0.949497 0.114178 6.53104e-19)
(1.11126 0.138442 -5.34371e-19)
(1.21173 0.150975 3.48233e-19)
(1.26642 0.153812 -2.2802e-19)
(1.29158 0.150028 2.38779e-20)
(1.29994 0.142352 -2.7006e-19)
(1.29978 0.132693 -4.72516e-19)
(1.29581 0.122195 -2.34269e-19)
(1.29036 0.111437 1.633e-19)
(1.28443 0.100795 5.54801e-20)
(1.27841 0.0901446 1.53152e-19)
(1.27228 0.0803608 -3.71046e-20)
(1.26647 0.0695127 4.57951e-19)
(1.25955 0.0622435 4.39748e-19)
(1.2555 0.0498749 1.82328e-19)
(-0.0319458 0.017833 -7.39083e-19)
(0.0526417 0.0101817 -7.08173e-19)
(0.259366 0.0217624 5.54406e-19)
(0.54118 0.0543181 -3.3706e-20)
(0.815702 0.0965652 7.83018e-19)
(1.02683 0.13144 -4.75036e-19)
(1.16482 0.153019 2.07743e-19)
(1.24333 0.162059 -2.70279e-19)
(1.28161 0.161877 5.09751e-19)
(1.29622 0.155976 -2.04138e-19)
(1.29857 0.147015 2.00927e-19)
(1.29534 0.136655 -1.36704e-20)
(1.28994 0.125799 1.58723e-19)
(1.28387 0.114878 -2.09424e-20)
(1.27769 0.104131 2.4495e-19)
(1.27158 0.0935438 5.04712e-20)
(1.26547 0.0835868 -8.87335e-21)
(1.25966 0.0731585 -3.12329e-19)
(1.25306 0.0654121 -1.19689e-19)
(1.24903 0.0535086 -1.74329e-19)
(-0.0272812 0.0143546 1.06148e-18)
(0.0839492 0.00448404 -6.86207e-19)
(0.328281 0.0256584 1.76238e-19)
(0.63278 0.0685938 -6.97966e-19)
(0.902019 0.114645 -4.9296e-19)
(1.09193 0.148259 5.39935e-20)
(1.20608 0.166428 9.74455e-20)
(1.26509 0.171945 -2.74277e-19)
(1.2901 0.169053 5.00299e-20)
(1.29687 0.161401 3.91849e-19)
(1.29509 0.151435 -2.89899e-19)
(1.2899 0.140538 -1.74697e-19)
(1.28363 0.129397 -9.65939e-20)
(1.2772 0.118323 -8.71797e-20)
(1.27088 0.107482 -1.12257e-19)
(1.26473 0.0968682 2.11852e-19)
(1.25869 0.086859 -1.03737e-19)
(1.2529 0.0765167 -2.17587e-20)
(1.24664 0.0685778 2.86736e-19)
(1.2425 0.0570731 3.12415e-19)
(-0.0208613 0.0106503 -2.52348e-19)
(0.121372 5.87322e-05 6.37147e-19)
(0.403716 0.033477 3.82761e-19)
(0.722602 0.0854868 -4.36459e-19)
(0.978945 0.133234 5.42449e-19)
(1.14519 0.164335 -3.23401e-21)
(1.23679 0.178706 4.92016e-19)
(1.27914 0.180848 3.22241e-19)
(1.29374 0.175589 2.87063e-19)
(1.29482 0.166503 -2.77524e-19)
(1.29028 0.15574 1.94756e-19)
(1.28385 0.144406 2.06246e-19)
(1.27706 0.133011 3.47145e-19)
(1.27042 0.121781 -1.84054e-19)
(1.26403 0.110821 -2.32777e-22)
(1.25788 0.100175 -1.78157e-19)
(1.2519 0.0900156 6.96941e-21)
(1.24618 0.0798384 -7.9572e-20)
(1.2402 0.0715671 -1.69294e-19)
(1.23598 0.060316 -6.46723e-20)
(-0.0123879 0.00679361 -2.29963e-19)
(0.165186 -0.00234017 -2.57399e-19)
(0.483615 0.0451938 -1.34101e-20)
(0.807852 0.104246 4.13729e-19)
(1.0457 0.151848 -4.05641e-19)
(1.1876 0.179545 -4.44538e-19)
(1.25875 0.189974 1.70592e-19)
(1.28729 0.18899 -2.01983e-19)
(1.29395 0.181696 -1.28801e-19)
(1.291 0.171431 5.05639e-20)
(1.28462 0.160008 -4.41156e-19)
(1.27742 0.148291 4.07999e-19)
(1.27032 0.13665 -3.95794e-20)
(1.26355 0.125244 -9.15678e-20)
(1.25713 0.114153 8.27895e-20)
(1.25099 0.103412 -1.26619e-19)
(1.24509 0.0931434 -1.13133e-19)
(1.23946 0.0829985 -6.75729e-21)
(1.23373 0.0744275 -8.42219e-20)
(1.22943 0.0634476 1.59458e-19)
(-0.00153221 0.00290897 2.64724e-19)
(0.215323 -0.00188403 4.67349e-19)
(0.565543 0.0604209 -6.34419e-19)
(0.886544 0.124243 -2.37045e-19)
(1.10227 0.170185 -1.07999e-19)
(1.22046 0.19388 6.22692e-19)
(1.27363 0.200395 -1.66699e-19)
(1.29102 0.196575 -1.04477e-19)
(1.29173 0.18754 -1.45512e-19)
(1.28599 0.176283 1.75422e-19)
(1.2784 0.164288 6.52333e-20)
(1.27072 0.152208 -7.65665e-20)
(1.26342 0.14031 -2.06388e-19)
(1.25659 0.128708 2.11412e-20)
(1.25016 0.117459 -8.99414e-20)
(1.24406 0.106604 1.6184e-19)
(1.23825 0.0961846 3.9983e-20)
(1.23272 0.0860549 4.20692e-20)
(1.22721 0.077173 5.74142e-20)
(1.22285 0.0663697 -1.68041e-19)
(0.0120488 -0.000807553 -4.97897e-19)
(0.271272 0.0021649 -2.92971e-20)
(0.647034 0.0785831 -9.6885e-20)
(0.957485 0.145011 2.80161e-19)
(1.14916 0.188076 -9.74685e-20)
(1.2451 0.207398 -2.7373e-19)
(1.28289 0.210137 -3.86407e-19)
(1.29146 0.203777 2.72269e-19)
(1.28782 0.193241 -3.21249e-19)
(1.28016 0.181123 1.60293e-19)
(1.2718 0.168601 9.47209e-20)
(1.2638 0.156158 -5.01529e-20)
(1.25639 0.143985 1.18506e-19)
(1.24952 0.132163 1.33812e-19)
(1.24311 0.120735 -2.85981e-19)
(1.23707 0.109727 2.15798e-19)
(1.23136 0.0991635 1.91935e-20)
(1.22594 0.0889841 3.74793e-20)
(1.22064 0.0797907 1.81961e-19)
(1.21623 0.0691552 4.56032e-20)
(0.0286741 -0.00407024 1.48097e-19)
(0.332082 0.0102834 -6.06445e-19)
(0.725892 0.0990894 5.74185e-19)
(1.02013 0.166219 2.63337e-19)
(1.18715 0.205438 -1.97453e-19)
(1.26282 0.220193 -3.27369e-19)
(1.28773 0.219361 1.11883e-20)
(1.28948 0.210735 -6.50833e-20)
(1.28269 0.198883 5.52928e-19)
(1.27374 0.185987 -2.53255e-19)
(1.26488 0.172954 -2.92269e-20)
(1.2567 0.160136 6.74793e-20)
(1.24922 0.147665 -4.21734e-20)
(1.24235 0.135598 -8.69776e-20)
(1.23598 0.123967 2.46296e-19)
(1.23001 0.112786 -2.03735e-19)
(1.2244 0.10206 2.51754e-20)
(1.2191 0.0917955 -1.16232e-19)
(1.21398 0.0823031 -1.23362e-19)
(1.20958 0.0717861 -4.0118e-20)
(0.0485868 -0.00650012 -1.06469e-19)
(0.396451 0.0225985 2.53639e-19)
(0.800364 0.121421 -2.32277e-19)
(1.07442 0.187637 -2.42312e-19)
(1.21716 0.222248 4.04586e-19)
(1.27479 0.232371 4.31707e-19)
(1.28914 0.228206 2.09814e-19)
(1.28569 0.217552 -3.60375e-21)
(1.27668 0.20452 -5.43789e-19)
(1.26687 0.19089 4.61266e-20)
(1.2577 0.177343 1.75188e-20)
(1.2494 0.164129 1.18829e-19)
(1.2419 0.151336 1.95955e-19)
(1.23505 0.139003 -1.03381e-20)
(1.22874 0.127148 -4.51614e-20)
(1.22287 0.115772 1.83069e-19)
(1.21737 0.104877 -1.20383e-19)
(1.2122 0.0944871 1.48789e-19)
(1.20725 0.0847033 -1.34274e-20)
(1.20288 0.0742857 1.54138e-19)
(0.0719038 -0.00764543 1.85727e-19)
(0.462871 0.0389195 9.92344e-20)
(0.869201 0.145148 -2.27986e-19)
(1.12056 0.209092 -2.84299e-19)
(1.24014 0.238517 -2.02126e-20)
(1.28203 0.244043 -4.73598e-20)
(1.28786 0.236786 2.34807e-19)
(1.28053 0.2243 1.64429e-19)
(1.26999 0.210178 1.77755e-19)
(1.25962 0.195832 -6.49636e-20)
(1.25026 0.181757 8.61891e-20)
(1.24191 0.168122 -7.95424e-20)
(1.23442 0.154985 -1.62607e-19)
(1.22763 0.142365 1.9845e-20)
(1.22139 0.130267 4.27805e-20)
(1.21563 0.11868 5.12177e-20)
(1.21026 0.107604 6.86012e-20)
(1.20521 0.0970595 -4.14406e-20)
(1.20043 0.0870038 8.05951e-20)
(1.19612 0.0766568 -1.8624e-19)
(0.0985797 -0.00702805 2.45069e-19)
(0.529786 0.0588523 -2.25319e-20)
(0.931614 0.169921 3.20204e-19)
(1.15899 0.230449 1.96828e-19)
(1.25699 0.254276 8.88533e-20)
(1.28539 0.255306 -2.19014e-19)
(1.28448 0.24519 -2.09011e-19)
(1.27431 0.231025 -5.84549e-20)
(1.26273 0.215866 -1.58748e-20)
(1.25202 0.200802 -1.55342e-20)
(1.24256 0.186177 -2.07711e-19)
(1.23421 0.1721 4.58033e-20)
(1.22677 0.158597 8.32927e-20)
(1.22005 0.145671 2.56662e-21)
(1.21392 0.133313 1.0149e-20)
(1.20828 0.121503 -2.60403e-20)
(1.20305 0.110238 -6.36935e-20)
(1.19815 0.0995137 -5.31568e-20)
(1.19353 0.0892035 -1.11436e-19)
(1.1893 0.0789078 1.71253e-20)
(0.128395 -0.00420728 -1.50541e-19)
(0.595716 0.0819212 9.50837e-20)
(0.987205 0.195459 -3.96777e-20)
(1.19023 0.251598 9.32868e-21)
(1.26854 0.269562 -3.65188e-19)
(1.28558 0.266246 9.0976e-20)
(1.27943 0.253476 5.89762e-20)
(1.26723 0.237746 -4.10211e-20)
(1.25497 0.221577 1.473e-19)
(1.24407 0.205783 -2.45962e-21)
(1.2346 0.190586 6.51782e-20)
(1.2263 0.176042 7.66642e-20)
(1.21894 0.162154 -5.27224e-20)
(1.21233 0.148908 -6.25684e-20)
(1.20633 0.136277 -3.42228e-20)
(1.20082 0.124234 -3.68197e-20)
(1.19574 0.11277 3.24871e-20)
(1.19099 0.101849 3.76487e-20)
(1.18654 0.0913078 6.09276e-20)
(1.18241 0.0810435 7.06382e-20)
(0.160969 0.00115875 -7.01585e-20)
(0.659339 0.107648 -1.40641e-20)
(1.03586 0.221529 -1.29076e-19)
(1.21486 0.272447 1.20707e-19)
(1.27553 0.284411 2.62233e-19)
(1.28314 0.276928 1.4418e-19)
(1.27301 0.261681 -6.5282e-20)
(1.25942 0.244466 -3.83917e-20)
(1.24676 0.227296 -8.73286e-20)
(1.23579 0.210752 8.43796e-20)
(1.22636 0.194958 -3.28755e-21)
(1.21816 0.179929 -4.22995e-20)
(1.21092 0.16564 -5.00645e-20)
(1.20445 0.152059 -4.82371e-20)
(1.19859 0.139146 1.00658e-19)
(1.19325 0.126864 -3.42684e-20)
(1.18833 0.115194 -3.7319e-20)
(1.18374 0.104065 -6.46543e-21)
(1.17947 0.0933163 -6.64995e-21)
(1.17543 0.0830667 -3.93143e-20)
(0.19579 0.00927351 -6.97004e-21)
(0.719537 0.13558 -9.43343e-20)
(1.07766 0.247939 4.41275e-20)
(1.23348 0.292921 -1.58567e-19)
(1.27858 0.298853 -1.11608e-19)
(1.27854 0.287396 1.67589e-20)
(1.26545 0.26982 -1.64756e-21)
(1.25095 0.25117 7.46279e-21)
(1.23809 0.232995 2.37481e-20)
(1.22716 0.21568 4.22527e-20)
(1.21784 0.199269 -5.7665e-20)
(1.20978 0.183737 2.46862e-20)
(1.2027 0.169035 4.33512e-20)
(1.1964 0.15511 -9.50875e-21)
(1.19073 0.141909 -4.25286e-20)
(1.18556 0.129383 2.39823e-20)
(1.18082 0.117502 2.76177e-20)
(1.17641 0.106161 2.81491e-20)
(1.1723 0.0952295 -1.43891e-20)
(1.16838 0.0849796 5.20816e-21)
(0.232254 0.0201955 7.78345e-20)
(0.775413 0.165296 -1.09874e-19)
(1.11283 0.274516 -1.51358e-20)
(1.24664 0.312957 6.48646e-20)
(1.27825 0.312908 1.05431e-19)
(1.27209 0.297674 -3.25124e-20)
(1.25689 0.277887 -9.3377e-20)
(1.24186 0.257835 9.30733e-20)
(1.22899 0.238643 -2.52575e-20)
(1.21818 0.220538 -2.92475e-20)
(1.20903 0.203492 2.67599e-20)
(1.20116 0.187445 -1.33611e-20)
(1.19428 0.172319 -3.92364e-21)
(1.18819 0.158045 1.05645e-20)
(1.18272 0.144551 1.52617e-20)
(1.17775 0.131782 1.96995e-20)
(1.1732 0.119686 -3.53478e-20)
(1.16898 0.108135 -8.81908e-21)
(1.16505 0.0970447 -2.203e-21)
(1.16124 0.0867813 1.07738e-20)
(0.269667 0.0338608 -4.27173e-20)
(0.826289 0.196397 7.6352e-20)
(1.14164 0.301097 -9.58352e-21)
(1.25492 0.332504 -2.08568e-20)
(1.27499 0.326583 -6.86205e-20)
(1.26408 0.307768 3.23716e-20)
(1.24746 0.285864 2.13895e-20)
(1.2322 0.264426 -2.37812e-20)
(1.21944 0.244205 -3.91263e-21)
(1.20884 0.225292 1.14337e-20)
(1.19993 0.207599 -1.24621e-20)
(1.1923 0.191027 6.30359e-21)
(1.18566 0.175473 -1.37728e-20)
(1.1798 0.160846 7.93154e-21)
(1.17456 0.14706 1.64815e-21)
(1.16983 0.134048 -7.33428e-21)
(1.16548 0.121739 4.23275e-21)
(1.16147 0.109983 -6.64949e-21)
(1.15771 0.0987577 2.18549e-21)
(1.15403 0.0884702 7.83644e-21)
(0.307247 0.0501133 -3.06676e-20)
(0.871687 0.228501 6.68522e-20)
(1.16441 0.327518 -7.08222e-21)
(1.2588 0.351514 -2.6819e-20)
(1.26918 0.339877 -6.31767e-20)
(1.25468 0.317667 3.18968e-20)
(1.2372 0.29372 2.08421e-20)
(1.22196 0.270904 -1.87834e-20)
(1.20944 0.249641 -2.16466e-22)
(1.19914 0.229909 8.95143e-21)
(1.19052 0.211559 -7.92866e-21)
(1.18318 0.194458 -2.17554e-21)
(1.17683 0.178474 -4.81825e-21)
(1.17125 0.163495 2.90028e-21)
(1.16627 0.14942 1.88831e-21)
(1.16178 0.13617 -7.4782e-21)
(1.15767 0.123651 8.39543e-21)
(1.15387 0.111703 -8.11652e-21)
(1.1503 0.100362 -1.98858e-21)
(1.14675 0.0900412 5.15793e-21)
(0.344224 0.0687054 8.87892e-20)
(0.911238 0.261205 -9.0146e-20)
(1.18138 0.35359 -6.54232e-20)
(1.25868 0.369936 8.56759e-20)
(1.26111 0.352779 9.81264e-20)
(1.24403 0.32735 -4.01725e-20)
(1.22616 0.30142 -6.68796e-20)
(1.21114 0.27723 7.35601e-20)
(1.19899 0.254916 -2.06221e-20)
(1.18906 0.234357 -2.41693e-20)
(1.18081 0.215346 1.90098e-20)
(1.17382 0.197717 -3.68059e-21)
(1.1678 0.181304 -9.01145e-21)
(1.16253 0.165978 2.90545e-21)
(1.15784 0.15162 1.40156e-20)
(1.15362 0.138137 1.65003e-20)
(1.14976 0.125414 -2.0825e-20)
(1.1462 0.113286 -5.55493e-21)
(1.14283 0.101854 -3.62589e-21)
(1.1394 0.0914924 7.83764e-21)
(0.380059 0.089414 3.95562e-20)
(0.945007 0.294243 -1.43237e-19)
(1.19302 0.379201 4.03926e-20)
(1.25503 0.387734 -1.06234e-19)
(1.25104 0.365258 -1.24514e-19)
(1.23224 0.336766 2.02893e-20)
(1.21437 0.308901 8.0394e-21)
(1.19976 0.283343 -8.14106e-21)
(1.18808 0.259976 2.743e-20)
(1.1786 0.238589 -1.12437e-21)
(1.17079 0.218922 -1.80994e-20)
(1.16421 0.200768 3.66248e-21)
(1.15856 0.183935 3.56568e-20)
(1.15364 0.168269 -3.04333e-21)
(1.14928 0.153639 -1.23197e-20)
(1.14535 0.139933 -7.16553e-21)
(1.14176 0.127014 3.15913e-20)
(1.13847 0.114719 1.36664e-20)
(1.13531 0.10323 -8.11335e-21)
(1.13198 0.0928263 -9.54874e-21)
(0.414129 0.111997 -8.77889e-20)
(0.972956 0.327325 -1.71174e-20)
(1.19963 0.404188 -1.26119e-19)
(1.24818 0.404847 1.4222e-19)
(1.23917 0.377272 1.77837e-19)
(1.21939 0.345865 6.93903e-20)
(1.20184 0.316111 -1.28102e-20)
(1.18781 0.289195 1.46172e-20)
(1.17671 0.264781 -7.44812e-20)
(1.16778 0.242572 5.38133e-20)
(1.16047 0.222256 -1.64022e-20)
(1.15435 0.203589 -1.26045e-20)
(1.14913 0.186345 -3.45429e-20)
(1.1446 0.17035 -1.05695e-20)
(1.1406 0.155462 1.65736e-20)
(1.13699 0.141549 -1.08602e-20)
(1.1337 0.128442 -1.43669e-20)
(1.13068 0.115993 4.18672e-21)
(1.12772 0.104483 -2.63411e-21)
(1.12453 0.0940374 -2.22062e-20)
(0.445856 0.136189 -1.29719e-19)
(0.995158 0.360175 2.50972e-20)
(1.20157 0.428401 6.10048e-20)
(1.23842 0.421215 -6.71734e-20)
(1.22568 0.388771 -2.43812e-19)
(1.20554 0.354585 2.05293e-20)
(1.1886 0.322987 8.87932e-20)
(1.17529 0.29473 -3.29344e-20)
(1.16489 0.269279 7.15443e-20)
(1.15659 0.246264 -1.90343e-20)
(1.14985 0.225313 4.81728e-20)
(1.14426 0.206147 6.60352e-21)
(1.13952 0.18851 7.05167e-22)