/*--------------------------------*- C++ -*----------------------------------*\
  =========                 |
  \\      /  F ield         | OpenFOAM: The Open Source CFD Toolbox
   \\    /   O peration     | Website:  https://openfoam.org
    \\  /    A nd           | Version:  7
     \\/     M anipulation  |
\*---------------------------------------------------------------------------*/
FoamFile
{
    version     2.0;
    format      ascii;
    class       volVectorField;
    location    "15";
    object      U;
}
// * * * * * * * * * * * * * * * * * * * * * * * * * * * * * * * * * * * * * //

dimensions      [0 1 -1 0 0 0 0];

internalField   nonuniform List<vector> 
2625
(
(0.30018 -0.00362525 -1.78182e-21)
(0.33318 -0.00376224 -3.82705e-21)
(0.362926 -0.00369494 -3.8669e-22)
(0.397704 -0.00420287 -1.72529e-21)
(0.241015 -0.0102793 7.24009e-21)
(0.272396 -0.0106263 -9.11896e-22)
(0.302979 -0.0108509 3.40917e-21)
(0.33628 -0.0112552 1.09002e-20)
(0.366199 -0.0110542 -2.58355e-22)
(0.401477 -0.0125555 -8.27757e-22)
(0.245622 -0.0170689 5.9913e-21)
(0.277501 -0.0176353 6.36476e-21)
(0.308558 -0.0180012 -7.29807e-21)
(0.342453 -0.0186541 -8.85494e-21)
(0.372716 -0.0183233 2.94095e-21)
(0.40898 -0.0207525 1.16885e-20)
(0.252502 -0.0237636 -7.39867e-21)
(0.285119 -0.024532 -5.70711e-21)
(0.316877 -0.0250269 1.20773e-20)
(0.35165 -0.0258974 2.1196e-21)
(0.382417 -0.0254434 -7.43576e-21)
(0.42013 -0.0286937 -9.78827e-21)
(0.261619 -0.0303261 1.95989e-21)
(0.295202 -0.0312724 -6.07567e-21)
(0.327877 -0.0318793 5.56759e-21)
(0.363792 -0.032925 -1.49553e-20)
(0.395211 -0.0323577 -5.60821e-21)
(0.434804 -0.0362832 5.01699e-21)
(0.272926 -0.0367198 -3.61389e-20)
(0.30769 -0.0378136 -5.38445e-21)
(0.341481 -0.0385113 8.14188e-21)
(0.378779 -0.0396791 9.81431e-21)
(0.410984 -0.0390118 1.83779e-20)
(0.452838 -0.0434322 -4.39781e-21)
(0.286362 -0.0429091 4.6684e-20)
(0.322505 -0.0441142 4.04711e-20)
(0.357594 -0.0448774 -3.14967e-20)
(0.396487 -0.0461049 1.70506e-20)
(0.429591 -0.0453547 -1.13517e-20)
(0.474034 -0.0500601 -2.3842e-21)
(0.301859 -0.0488592 -2.10436e-20)
(0.339556 -0.0501343 -1.62952e-20)
(0.376102 -0.0509345 3.24132e-20)
(0.416771 -0.0521507 -7.00613e-21)
(0.450865 -0.0513388 -2.70463e-20)
(0.498157 -0.0560961 2.20373e-20)
(0.319334 -0.0545367 -2.48887e-20)
(0.358741 -0.0558361 -3.32487e-20)
(0.396878 -0.0566417 -3.75471e-20)
(0.439464 -0.0577693 4.30394e-21)
(0.474617 -0.0569205 1.28602e-20)
(0.524942 -0.0614804 -3.1858e-20)
(0.379941 -0.0611837 5.07509e-20)
(0.419779 -0.0619608 1.48083e-20)
(0.464383 -0.0629176 -3.25855e-21)
(0.500637 -0.0620603 4.29427e-20)
(0.5541 -0.0661654 8.56306e-21)
(0.40303 -0.0661442 -7.94375e-20)
(0.444645 -0.066857 -8.1773e-22)
(0.491326 -0.0675579 -1.73505e-20)
(0.528698 -0.0667231 4.15181e-21)
(0.585316 -0.0701163 -4.85055e-21)
(0.427868 -0.0706871 7.16216e-20)
(0.471309 -0.0712989 1.20392e-20)
(0.520079 -0.071658 1.99889e-20)
(0.558561 -0.0708781 -4.07669e-20)
(0.618259 -0.0733114 2.38232e-20)
(0.454307 -0.0747851 -9.13791e-21)
(0.49959 -0.0752586 -9.22286e-21)
(0.550415 -0.0751919 -1.96504e-20)
(0.589972 -0.0744993 3.1992e-20)
(0.652587 -0.0757422 -3.81825e-20)
(0.48219 -0.0784141 5.4155e-22)
(0.529299 -0.0787123 -4.5671e-21)
(0.582098 -0.0781399 4.6902e-20)
(0.622669 -0.0775653 -8.77298e-21)
(0.68795 -0.0774129 3.9072e-20)
(0.511353 -0.0815538 2.58314e-22)
(0.560239 -0.0816407 3.00264e-20)
(0.614887 -0.0804888 -6.36161e-20)
(0.656388 -0.0800596 4.62009e-20)
(0.723999 -0.0783398 -3.25007e-20)
(0.541627 -0.0841874 -5.00644e-20)
(0.592207 -0.0840285 -2.63574e-20)
(0.648534 -0.0822326 8.34393e-20)
(0.690859 -0.081971 -6.39899e-20)
(0.76039 -0.0785503 -3.48385e-21)
(0.572837 -0.0863021 2.79088e-20)
(0.624998 -0.0858653 1.02878e-20)
(0.682794 -0.0833719 -5.50747e-20)
(0.725812 -0.0832936 -4.43198e-21)
(0.796791 -0.0780818 3.78241e-20)
(0.604805 -0.0878892 -2.852e-21)
(0.658405 -0.0871456 -3.94956e-20)
(0.717422 -0.0839144 -1.60721e-20)
(0.760985 -0.0840274 -1.5653e-20)
(0.832885 -0.0769803 -5.83313e-21)
(0.637352 -0.0889441 2.93317e-20)
(0.692218 -0.0878685 -1.39489e-20)
(0.752176 -0.083874 6.21404e-20)
(0.796118 -0.0841784 3.27e-20)
(0.868377 -0.0752986 -2.90956e-20)
(0.670299 -0.0894666 -6.154e-20)
(0.726234 -0.0880381 3.73932e-20)
(0.786826 -0.0832711 -2.89266e-20)
(0.830963 -0.0837587 -6.66095e-20)
(0.902999 -0.0730949 4.71697e-20)
(0.703468 -0.0894605 3.85659e-20)
(0.76025 -0.0876637 2.3382e-20)
(0.821149 -0.0821317 -3.2705e-20)
(0.865285 -0.082787 7.293e-20)
(0.936509 -0.0704315 -4.36151e-20)
(0.736685 -0.0889341 2.77048e-21)
(0.794072 -0.086759 -2.7364e-20)
(0.854935 -0.0804866 8.51018e-21)
(0.898863 -0.0812879 2.96891e-20)
(0.968698 -0.0673724 -6.8583e-22)
(0.827513 -0.0853427 2.59478e-20)
(0.887991 -0.0783713 -4.15961e-20)
(0.931496 -0.0792924 -1.12311e-20)
(0.999391 -0.0639825 -1.18684e-20)
(0.860396 -0.0834377 -3.59948e-20)
(0.92014 -0.0758246 3.50699e-20)
(0.963001 -0.0768365 -3.08684e-20)
(1.02844 -0.060326 3.27929e-20)
(0.892556 -0.0810712 -8.51026e-21)
(0.951221 -0.0728881 5.03001e-20)
(0.99322 -0.0739614 6.78324e-20)
(1.05575 -0.0564646 -2.08391e-21)
(0.92384 -0.078274 8.16744e-20)
(0.981098 -0.0696053 -4.76053e-20)
(1.02202 -0.0707121 -5.45885e-21)
(1.08124 -0.0524573 -2.87727e-20)
(0.954113 -0.0750801 -9.1961e-21)
(1.00965 -0.0660207 4.36388e-22)
(1.04928 -0.0671363 -3.16786e-20)
(1.10485 -0.0483586 -2.08396e-21)
(0.983252 -0.0715261 -2.29592e-20)
(1.03678 -0.0621793 -2.40453e-21)
(1.07493 -0.0632836 -5.10168e-20)
(1.12658 -0.0442183 4.89522e-20)
(1.01115 -0.0676506 6.97289e-20)
(1.06242 -0.0581255 6.8352e-20)
(1.09891 -0.059204 -2.8714e-20)
(1.14644 -0.040081 -1.08793e-19)
(1.03773 -0.0634936 -1.70358e-19)
(1.0865 -0.0539029 -1.01422e-19)
(1.12118 -0.0549467 3.18319e-20)
(1.16446 -0.0359855 1.07939e-19)
(1.10899 -0.0495533 1.13098e-20)
(1.14172 -0.0505593 7.962e-20)
(1.1807 -0.0319652 -1.37204e-20)
(1.12988 -0.0451164 1.19472e-19)
(1.16055 -0.0460864 6.00445e-21)
(1.19521 -0.0280481 -4.39678e-20)
(1.14917 -0.0406296 -6.84485e-20)
(1.17771 -0.0415686 -9.68186e-20)
(1.20807 -0.0242575 6.04263e-20)
(1.16687 -0.0361272 2.54013e-20)
(1.19322 -0.0370422 -1.39156e-20)
(1.21939 -0.0206131 -1.34042e-19)
(1.18302 -0.0316403 9.23876e-21)
(1.20717 -0.032538 -6.01197e-20)
(1.22924 -0.017133 1.23269e-19)
(1.19766 -0.0271968 -1.28126e-20)
(1.21961 -0.0280819 1.20809e-19)
(1.23772 -0.0138356 -5.66289e-20)
(1.23062 -0.0236934 6.63851e-20)
(1.24493 -0.0107378 9.41386e-20)
(1.24029 -0.0193837 -4.39426e-20)
(1.25094 -0.00785088 -7.40829e-20)
(1.24869 -0.0151534 1.41167e-20)
(1.25585 -0.0052234 -1.40559e-20)
(1.25592 -0.0110079 -1.16315e-20)
(1.25984 -0.00309866 1.3266e-20)
(1.26331 -0.0018293 -9.64284e-21)
(1.26689 -0.000446895 1.21784e-20)
(1.26991 0.00122145 8.51742e-20)
(1.27226 0.0030598 1.14192e-20)
(0.416968 -0.00376029 6.64849e-22)
(0.42271 -0.00363216 -3.51166e-22)
(0.428288 -0.00351941 -4.58007e-24)
(0.433812 -0.00341695 5.31601e-23)
(0.439268 -0.00332278 -4.52126e-23)
(0.444653 -0.00323592 -1.9225e-22)
(0.449976 -0.00315535 1.3975e-22)
(0.455245 -0.00308017 3.29899e-22)
(0.460467 -0.00300961 -2.41931e-22)
(0.465647 -0.00294304 4.00911e-23)
(0.470788 -0.00287991 -6.35865e-23)
(0.475893 -0.00281979 1.78117e-22)
(0.480967 -0.00276227 -1.32612e-22)
(0.486011 -0.00270705 2.69285e-22)
(0.491028 -0.00265385 -3.28749e-22)
(0.496018 -0.00260243 7.5442e-23)
(0.500985 -0.0025526 1.81813e-22)
(0.505928 -0.00250419 -1.58998e-22)
(0.510849 -0.00245707 1.9885e-22)
(0.515749 -0.00241111 -2.69342e-22)
(0.520628 -0.00236621 1.43027e-23)
(0.525486 -0.00232229 2.0663e-22)
(0.530325 -0.00227927 -2.9859e-22)
(0.535143 -0.00223711 2.29838e-22)
(0.539943 -0.00219574 -2.05885e-22)
(0.544722 -0.00215513 1.3238e-22)
(0.549483 -0.00211524 9.2266e-23)
(0.554224 -0.00207604 -2.24291e-23)
(0.558946 -0.00203751 -2.15885e-22)
(0.563649 -0.00199964 1.87526e-22)
(0.568333 -0.00196241 2.19752e-23)
(0.572997 -0.00192581 -5.96492e-23)
(0.577641 -0.00188983 9.51149e-23)
(0.582267 -0.00185446 4.35709e-23)
(0.586873 -0.00181971 -1.91775e-22)
(0.59146 -0.00178557 8.67954e-24)
(0.596028 -0.00175205 9.44524e-23)
(0.600576 -0.00171915 4.90449e-23)
(0.605106 -0.00168687 -8.35574e-23)
(0.609617 -0.00165522 8.86241e-24)
(0.61411 -0.00162421 -9.35976e-23)
(0.618584 -0.00159384 1.92965e-22)
(0.623041 -0.00156413 -1.85041e-22)
(0.420608 -0.011236 3.5737e-22)
(0.426274 -0.0108548 -1.44879e-22)
(0.431778 -0.0105192 -3.93786e-23)
(0.437235 -0.0102139 8.00533e-22)
(0.442628 -0.00993318 5.34493e-22)
(0.447952 -0.00967409 -1.6129e-21)
(0.453216 -0.0094337 1.69307e-22)
(0.458429 -0.00920928 2.31666e-21)
(0.463597 -0.00899858 -1.37394e-21)
(0.468723 -0.00879971 4.76291e-22)
(0.473811 -0.0086111 -4.52622e-22)
(0.478866 -0.0084314 1.29267e-22)
(0.48389 -0.00825948 3.20194e-22)
(0.488884 -0.00809438 -7.22363e-22)
(0.493853 -0.00793529 5.75354e-22)
(0.498796 -0.00778151 1.48316e-22)
(0.503716 -0.00763247 -1.81714e-22)
(0.508613 -0.00748767 -9.2009e-22)
(0.513489 -0.00734669 1.23391e-21)
(0.518344 -0.00720918 -7.56423e-22)
(0.523178 -0.00707484 6.21793e-22)
(0.527993 -0.00694342 -5.01473e-22)
(0.532789 -0.00681471 2.17988e-22)
(0.537565 -0.00668853 -2.81377e-22)
(0.542322 -0.00656473 1.66903e-22)
(0.547061 -0.00644319 -7.11492e-23)
(0.55178 -0.00632382 1.86507e-23)
(0.556481 -0.00620652 -1.26086e-22)
(0.561163 -0.00609124 2.6209e-22)
(0.565827 -0.00597791 6.52183e-23)
(0.570471 -0.00586651 -1.62788e-22)
(0.575097 -0.005757 2.21001e-22)
(0.579704 -0.00564937 -1.04174e-22)
(0.584292 -0.00554359 -9.20661e-23)
(0.588862 -0.00543966 -2.0908e-23)
(0.593412 -0.00533759 5.73816e-23)
(0.597944 -0.00523739 -1.16537e-22)
(0.602458 -0.00513905 -1.57203e-22)
(0.606953 -0.00504261 -7.74557e-23)
(0.611429 -0.00494807 -1.04131e-22)
(0.615888 -0.00485547 1.39293e-22)
(0.620329 -0.00476483 8.49679e-23)
(0.624753 -0.00467619 -2.48906e-22)
(0.427847 -0.0185818 5.70352e-22)
(0.433364 -0.0179571 1.68707e-21)
(0.43872 -0.0174069 -1.88185e-21)
(0.444045 -0.0169055 1.23692e-21)
(0.449312 -0.0164439 -1.28275e-21)
(0.454516 -0.0160175 -2.36639e-22)
(0.459664 -0.0156216 2.37432e-23)
(0.464764 -0.0152517 1.13558e-21)
(0.469823 -0.0149042 -2.91823e-22)
(0.474842 -0.0145761 3.09245e-22)
(0.479827 -0.0142647 -5.80375e-22)
(0.484781 -0.013968 3.29817e-22)
(0.489705 -0.013684 -6.10194e-22)
(0.494602 -0.0134112 -4.71131e-22)
(0.499475 -0.0131483 1.20341e-21)
(0.504324 -0.0128942 2.38325e-22)
(0.509151 -0.0126478 -1.20247e-21)
(0.513956 -0.0124084 1.50127e-21)
(0.518742 -0.0121752 -1.83042e-21)
(0.523508 -0.0119478 7.8485e-22)
(0.528255 -0.0117257 8.25246e-22)
(0.532983 -0.0115083 -7.93663e-22)
(0.537693 -0.0112954 2.23689e-22)
(0.542385 -0.0110867 2.22687e-22)
(0.547059 -0.0108819 -4.20385e-22)
(0.551715 -0.0106808 2.06615e-22)
(0.556353 -0.0104833 4.34166e-23)
(0.560974 -0.0102892 -4.9384e-23)
(0.565577 -0.0100984 5.17128e-23)
(0.570162 -0.00991094 4.32728e-22)
(0.57473 -0.0097266 -3.74916e-22)
(0.57928 -0.00954538 -2.46156e-22)
(0.583811 -0.00936726 -3.14572e-22)
(0.588326 -0.00919222 8.51274e-22)
(0.592822 -0.00902024 -1.33319e-22)
(0.5973 -0.00885133 -6.65031e-23)
(0.601761 -0.0086855 -1.7238e-22)
(0.606204 -0.00852278 -1.06924e-22)
(0.61063 -0.00836318 5.20981e-22)
(0.615038 -0.00820676 -3.01282e-22)
(0.619429 -0.00805353 1.5251e-22)
(0.623804 -0.00790357 1.55702e-22)
(0.628162 -0.00775691 -1.11972e-22)
(0.438606 -0.0257132 -1.92062e-21)
(0.443903 -0.0248609 2.70983e-21)
(0.44904 -0.0241097 -7.18494e-22)
(0.454169 -0.0234232 1.42702e-21)
(0.459251 -0.0227899 -3.75874e-21)
(0.464275 -0.0222043 1.85643e-21)
(0.469251 -0.0216599 1.63631e-21)
(0.474185 -0.0211508 1.11176e-21)
(0.479081 -0.0206721 -2.27127e-21)
(0.483944 -0.0202197 -1.518e-21)
(0.488775 -0.0197902 1.71377e-21)
(0.493577 -0.0193806 1.06105e-21)
(0.498354 -0.0189885 -2.17609e-21)
(0.503107 -0.0186117 1.01471e-21)
(0.507837 -0.0182484 -5.03688e-22)
(0.512546 -0.017897 7.05085e-23)
(0.517235 -0.0175564 9.16872e-23)
(0.521905 -0.0172253 1.42865e-21)
(0.526557 -0.0169029 -1.17185e-21)
(0.531191 -0.0165884 1.69498e-21)
(0.535807 -0.016281 -1.46794e-21)
(0.540407 -0.0159802 2.79883e-22)
(0.54499 -0.0156856 -2.40042e-23)
(0.549557 -0.0153968 -3.12464e-23)
(0.554107 -0.0151133 -1.69991e-22)
(0.558641 -0.014835 -1.90812e-22)
(0.563159 -0.0145616 4.72423e-22)
(0.567661 -0.0142929 -1.80026e-21)
(0.572147 -0.0140288 1.01594e-21)
(0.576616 -0.0137692 -7.35262e-22)
(0.581069 -0.0135139 9.40769e-22)
(0.585506 -0.013263 3.83036e-22)
(0.589926 -0.0130164 -1.29727e-21)
(0.59433 -0.0127739 6.11899e-22)
(0.598718 -0.0125357 2.07396e-22)
(0.603089 -0.0123018 -2.74005e-22)
(0.607444 -0.0120721 8.79705e-22)
(0.611783 -0.0118467 -6.2755e-22)
(0.616106 -0.0116257 -2.2458e-22)
(0.620413 -0.011409 3.43143e-22)
(0.624704 -0.0111967 -3.15941e-22)
(0.62898 -0.010989 7.243e-22)
(0.633241 -0.0107858 2.82667e-23)
(0.452765 -0.0325496 4.03825e-22)
(0.457776 -0.031491 9.69705e-22)
(0.462628 -0.0305572 2.85225e-21)
(0.467499 -0.0297005 -3.68562e-21)
(0.472338 -0.0289084 1.71318e-21)
(0.477129 -0.0281747 -4.02879e-22)
(0.481878 -0.0274915 2.5945e-22)
(0.486594 -0.0268517 -9.03979e-22)
(0.491277 -0.0262495 7.04677e-22)
(0.495933 -0.0256798 1.51111e-21)
(0.500562 -0.0251385 -6.66441e-22)
(0.505167 -0.0246219 -9.61338e-23)
(0.50975 -0.024127 -3.18103e-21)
(0.514313 -0.0236512 7.52055e-22)
(0.518856 -0.0231923 1.37781e-21)
(0.523381 -0.0227483 4.2202e-22)
(0.52789 -0.0223177 -9.19021e-22)
(0.532381 -0.021899 -1.17421e-21)
(0.536857 -0.0214912 1.40562e-21)
(0.541318 -0.0210933 9.4731e-22)
(0.545763 -0.0207044 -2.14953e-21)
(0.550194 -0.0203238 2.07999e-21)
(0.554611 -0.0199509 7.44686e-22)
(0.559013 -0.0195852 -1.84911e-21)
(0.563401 -0.0192264 1.24454e-21)
(0.567775 -0.018874 4.60544e-22)
(0.572135 -0.0185278 -3.55623e-22)
(0.576481 -0.0181875 -2.09644e-21)
(0.580812 -0.017853 1.62884e-22)
(0.585129 -0.0175242 1.02045e-21)
(0.589432 -0.0172008 2.12072e-24)
(0.59372 -0.0168829 1.18292e-21)
(0.597994 -0.0165704 -1.94778e-21)
(0.602253 -0.0162632 5.74085e-22)
(0.606498 -0.0159613 8.82584e-22)
(0.610729 -0.0156648 2.7422e-22)
(0.614945 -0.0153737 -2.109e-21)
(0.619147 -0.015088 1.17058e-21)
(0.623334 -0.0148078 4.89033e-22)
(0.627508 -0.0145331 -1.60713e-21)
(0.631668 -0.014264 6.85988e-22)
(0.635815 -0.0140007 -1.45611e-23)
(0.639948 -0.0137431 3.09122e-22)
(0.47017 -0.039015 -2.05135e-22)
(0.474833 -0.0377763 1.89254e-21)
(0.479338 -0.0366827 -6.36996e-21)
(0.483896 -0.0356746 3.44248e-22)
(0.488438 -0.0347396 -4.89847e-22)
(0.492942 -0.0338716 -1.66814e-21)
(0.497415 -0.0330619 3.62497e-21)
(0.501862 -0.0323024 -2.8738e-21)
(0.506286 -0.0315863 2.08634e-21)
(0.510688 -0.0309081 -1.83922e-21)
(0.51507 -0.030263 1.76023e-21)
(0.519433 -0.0296467 4.81117e-22)
(0.523779 -0.0290559 9.51056e-22)
(0.528108 -0.0284875 -2.04147e-21)
(0.532423 -0.0279389 5.98581e-22)
(0.536723 -0.0274079 1.17365e-22)
(0.541009 -0.0268928 -8.26285e-23)
(0.545282 -0.0263918 1.06004e-21)
(0.549543 -0.0259036 -2.47015e-21)
(0.553791 -0.025427 9.74205e-22)
(0.558027 -0.0249612 -3.80362e-23)
(0.562251 -0.0245052 1.11734e-21)
(0.566464 -0.0240584 7.36466e-22)
(0.570665 -0.0236202 -1.21211e-21)
(0.574854 -0.02319 3.0508e-22)
(0.579031 -0.0227675 -3.27251e-22)
(0.583197 -0.0223524 -3.89124e-22)
(0.587351 -0.0219444 5.61782e-22)
(0.591493 -0.0215432 -5.95976e-22)
(0.595624 -0.0211487 1.84111e-21)
(0.599742 -0.0207607 -1.12535e-21)
(0.603849 -0.0203793 -8.22598e-22)
(0.607943 -0.0200042 -1.33971e-22)
(0.612025 -0.0196356 1.26702e-21)
(0.616095 -0.0192733 -4.02779e-22)
(0.620153 -0.0189174 -2.37404e-23)
(0.624199 -0.0185679 6.8623e-22)
(0.628233 -0.0182249 -3.58341e-22)
(0.632254 -0.0178884 7.89567e-22)
(0.636265 -0.0175585 -1.69871e-21)
(0.640263 -0.0172354 4.7698e-22)
(0.644251 -0.0169191 -1.23322e-22)
(0.648227 -0.0166097 3.40114e-22)
(0.49063 -0.0450394 1.56476e-21)
(0.49489 -0.0436512 -1.97468e-21)
(0.498992 -0.0424243 3.12575e-21)
(0.503185 -0.0412865 6.78783e-21)
(0.507381 -0.0402273 -1.73822e-21)
(0.511551 -0.0392416 -3.53356e-21)
(0.5157 -0.0383199 -4.60474e-21)
(0.519835 -0.0374536 5.33616e-21)
(0.523954 -0.0366353 3.43885e-21)
(0.528059 -0.0358591 -7.15408e-21)
(0.532151 -0.0351197 -1.54825e-21)
(0.536231 -0.0344126 2.89352e-21)
(0.540299 -0.0337341 1.04094e-21)
(0.544356 -0.0330807 -7.69238e-22)
(0.548402 -0.0324497 -7.86172e-23)
(0.552439 -0.0318386 9.6868e-22)
(0.556465 -0.0312454 -3.18175e-21)
(0.560483 -0.0306682 4.1205e-21)
(0.564491 -0.0301056 -1.5517e-21)
(0.568491 -0.0295562 1.48004e-22)
(0.572481 -0.029019 1.94283e-21)
(0.576463 -0.0284929 -2.3957e-21)
(0.580437 -0.0279774 -2.05132e-21)
(0.584402 -0.0274716 1.74546e-21)
(0.588358 -0.026975 2.60772e-21)
(0.592305 -0.0264872 5.62813e-22)
(0.596244 -0.0260078 -1.39966e-21)
(0.600174 -0.0255365 1.26261e-21)
(0.604094 -0.025073 7.36123e-22)
(0.608006 -0.0246172 -2.33078e-21)
(0.611909 -0.0241689 1.17774e-21)
(0.615802 -0.023728 -7.72582e-22)
(0.619686 -0.0232944 -2.47942e-22)
(0.62356 -0.0228682 -4.92715e-22)
(0.627425 -0.0224493 -6.03977e-22)
(0.63128 -0.0220377 9.90719e-22)
(0.635127 -0.0216335 4.43202e-22)
(0.638963 -0.0212367 -6.20659e-22)
(0.642791 -0.0208474 4.60174e-22)
(0.646609 -0.0204658 1.42718e-22)
(0.650418 -0.0200919 -1.06725e-22)
(0.654219 -0.0197258 -3.81614e-22)
(0.658011 -0.0193678 5.06275e-22)
(0.51392 -0.0505605 -2.62449e-21)
(0.51773 -0.0490563 2.89062e-21)
(0.521382 -0.0477256 -6.36384e-21)
(0.525164 -0.0464827 8.4905e-21)
(0.52897 -0.0453205 -2.0625e-21)
(0.532763 -0.0442357 -4.59228e-21)
(0.536547 -0.0432187 6.68448e-21)
(0.540327 -0.0422602 2.12002e-22)
(0.544103 -0.041353 -5.05229e-21)
(0.547872 -0.0404909 4.62389e-22)
(0.551636 -0.0396683 -1.93542e-21)
(0.555395 -0.0388806 3.31466e-21)
(0.559148 -0.0381238 -2.24282e-21)
(0.562896 -0.0373944 5.82812e-21)
(0.566638 -0.0366893 -8.82708e-21)
(0.570376 -0.0360059 5.22062e-21)
(0.574109 -0.0353421 -3.49673e-21)
(0.577836 -0.0346959 6.41993e-24)
(0.581559 -0.0340657 3.49208e-21)
(0.585276 -0.03345 2.44351e-22)
(0.588989 -0.0328478 7.00178e-23)
(0.592697 -0.0322579 -9.90441e-22)
(0.596399 -0.0316795 -2.37891e-21)
(0.600097 -0.0311119 8.91513e-22)
(0.603789 -0.0305546 1.96751e-21)
(0.607476 -0.0300069 -2.2826e-22)
(0.611157 -0.0294685 -1.08036e-21)
(0.614832 -0.0289391 1.64444e-21)
(0.618502 -0.0284184 6.43836e-22)
(0.622166 -0.0279062 -1.62985e-21)
(0.625823 -0.0274023 -7.48408e-22)
(0.629475 -0.0269067 -1.86065e-22)
(0.63312 -0.0264192 -3.48993e-22)
(0.636758 -0.0259399 8.1325e-22)
(0.640391 -0.0254687 -1.27825e-21)
(0.644017 -0.0250057 1.90688e-21)
(0.647636 -0.0245509 -1.3159e-21)
(0.651249 -0.0241045 1.82742e-22)
(0.654855 -0.0236664 -5.17136e-22)
(0.658456 -0.0232368 3.56445e-22)
(0.66205 -0.0228159 5.43528e-22)
(0.665639 -0.0224038 -1.33071e-21)
(0.669222 -0.0220007 1.40512e-21)
(0.539789 -0.0555243 -2.80608e-21)
(0.54311 -0.0539399 1.02129e-21)
(0.54627 -0.052537 1.56357e-21)
(0.549603 -0.0512154 -1.73002e-21)
(0.552983 -0.0499734 6.95702e-21)
(0.556361 -0.04881 -2.95572e-21)
(0.559743 -0.0477159 -3.16921e-21)
(0.563133 -0.0466818 -9.37209e-22)
(0.566529 -0.0457005 3.96123e-21)
(0.569929 -0.0447658 -5.58737e-21)
(0.573331 -0.0438724 6.75114e-21)
(0.576735 -0.0430156 -1.82648e-21)
(0.580141 -0.0421911 2.35224e-21)
(0.583547 -0.0413955 -5.2863e-21)
(0.586954 -0.0406257 3.14954e-21)
(0.590362 -0.0398789 7.25528e-23)
(0.59377 -0.0391529 1.50157e-22)
(0.597177 -0.0384456 -2.92131e-21)
(0.600584 -0.0377555 3.894e-22)
(0.60399 -0.0370809 -1.6286e-21)
(0.607396 -0.0364207 1.68062e-21)
(0.610801 -0.0357738 -2.52499e-21)
(0.614204 -0.0351393 4.0123e-21)
(0.617606 -0.0345164 -1.70924e-23)
(0.621006 -0.0339045 -4.70683e-22)
(0.624405 -0.0333031 1.50937e-21)
(0.627802 -0.0327117 -1.85148e-21)
(0.631196 -0.03213 -1.73035e-21)
(0.634588 -0.0315577 2.46551e-21)
(0.637978 -0.0309946 4.80057e-22)
(0.641364 -0.0304405 -3.37375e-22)
(0.644748 -0.0298953 -1.35788e-21)
(0.648129 -0.0293591 -1.02973e-22)
(0.651507 -0.0288316 -2.35516e-21)
(0.654882 -0.028313 3.3244e-21)
(0.658254 -0.0278034 -3.1392e-22)
(0.661622 -0.0273026 -2.95769e-22)
(0.664988 -0.026811 -4.02773e-23)
(0.66835 -0.0263285 -1.119e-22)
(0.671709 -0.0258553 -3.85205e-22)
(0.675065 -0.0253916 -1.59521e-21)
(0.678419 -0.0249375 2.06718e-21)
(0.68177 -0.0244933 1.41543e-21)
(0.567957 -0.0598863 -7.15889e-21)
(0.570759 -0.0582585 3.63882e-21)
(0.573397 -0.0568163 -5.03293e-22)
(0.57625 -0.0554438 -2.30798e-22)
(0.579171 -0.0541464 -7.02591e-22)
(0.582104 -0.0529265 1.45649e-22)
(0.585054 -0.0517749 1.63537e-22)
(0.588024 -0.0506828 -9.91913e-22)
(0.591011 -0.0496435 4.21858e-21)
(0.59401 -0.048651 -5.8748e-21)
(0.597022 -0.0477003 5.46792e-21)
(0.600043 -0.0467867 -4.75381e-21)
(0.603073 -0.0459062 5.91034e-21)
(0.606111 -0.0450553 -2.13297e-21)
(0.609155 -0.0442309 -1.99327e-22)
(0.612206 -0.0434303 -4.38496e-21)
(0.615262 -0.0426513 2.62753e-21)
(0.618324 -0.0418918 -2.1634e-21)
(0.621389 -0.0411501 5.22434e-21)
(0.624459 -0.0404247 -3.56542e-21)
(0.627532 -0.0397144 1.18994e-21)
(0.630609 -0.0390179 -1.51463e-21)
(0.633688 -0.0383345 -4.66199e-22)
(0.636771 -0.0376633 6.15421e-21)
(0.639855 -0.0370037 -5.38382e-21)
(0.642942 -0.0363551 5.27535e-21)
(0.646031 -0.0357172 -3.00401e-21)
(0.649121 -0.0350894 1.05973e-21)
(0.652212 -0.0344716 -2.77078e-21)
(0.655305 -0.0338636 1.26356e-21)
(0.658398 -0.0332651 1.41295e-21)
(0.661493 -0.0326761 -2.81146e-22)
(0.664587 -0.0320966 -9.74183e-22)
(0.667683 -0.0315264 2.08382e-21)
(0.670778 -0.0309657 -3.61005e-21)
(0.673874 -0.0304145 1.06607e-21)
(0.676971 -0.0298728 1.03097e-21)
(0.680067 -0.0293409 7.908e-23)
(0.683164 -0.0288187 4.48269e-22)
(0.686261 -0.0283066 1.13864e-21)
(0.689359 -0.0278046 4.99937e-22)
(0.692457 -0.027313 -6.23365e-22)
(0.695556 -0.026832 -1.38137e-21)
(0.598124 -0.063612 -8.7492e-22)
(0.600388 -0.0619777 -4.4547e-21)
(0.602481 -0.0605294 4.74691e-22)
(0.604831 -0.0591346 -2.04486e-21)
(0.60727 -0.0578072 5.57706e-21)
(0.609734 -0.0565535 -6.66439e-21)
(0.612228 -0.0553651 3.35614e-21)
(0.614753 -0.0542337 -1.53287e-21)
(0.617306 -0.0531533 -1.4865e-21)
(0.619883 -0.0521186 5.36212e-21)
(0.622479 -0.051125 8.81784e-22)
(0.625094 -0.0501679 -5.61141e-21)
(0.627726 -0.0492438 4.57547e-21)
(0.630372 -0.0483492 -1.07602e-21)
(0.633032 -0.0474812 6.29478e-22)
(0.635703 -0.0466373 -2.48453e-21)
(0.638386 -0.0458151 -1.28156e-21)
(0.64108 -0.0450128 4.77814e-21)
(0.643782 -0.0442285 -4.30454e-21)
(0.646494 -0.0434609 1.03337e-21)
(0.649214 -0.0427087 -2.25455e-21)
(0.651942 -0.0419707 4.35805e-21)
(0.654678 -0.0412462 -2.33695e-21)
(0.65742 -0.0405342 -4.11075e-22)
(0.660169 -0.0398341 1.82317e-21)
(0.662924 -0.0391455 -4.45352e-21)
(0.665685 -0.0384678 3.62673e-21)
(0.668451 -0.0378007 -2.60815e-21)
(0.671223 -0.0371439 -8.2487e-22)
(0.673999 -0.0364973 5.00684e-21)
(0.67678 -0.0358606 -2.47548e-21)
(0.679566 -0.0352338 -2.56627e-22)
(0.682356 -0.0346169 -4.21706e-22)
(0.68515 -0.0340098 1.39773e-22)
(0.687948 -0.0334125 2.29848e-21)
(0.69075 -0.0328253 -3.77819e-22)
(0.693556 -0.032248 -2.45575e-21)
(0.696366 -0.031681 2.61656e-21)
(0.69918 -0.0311243 1.01044e-21)
(0.701997 -0.0305781 -3.27706e-21)
(0.704819 -0.0300427 1.2215e-21)
(0.707645 -0.0295182 8.78401e-22)
(0.710475 -0.029005 8.7951e-22)
(0.629974 -0.0666781 1.94569e-21)
(0.631689 -0.065073 3.05694e-21)
(0.633224 -0.0636511 -1.96195e-22)
(0.635057 -0.0622625 1.011e-20)
(0.636998 -0.0609305 -1.82644e-20)
(0.638976 -0.0596663 1.75679e-20)
(0.640996 -0.0584622 -8.52739e-21)
(0.64306 -0.0573109 -1.58856e-21)
(0.645162 -0.0562071 2.33903e-21)
(0.647297 -0.0551465 -1.59361e-23)
(0.649461 -0.0541249 -8.05731e-22)
(0.651652 -0.0531385 5.41888e-22)
(0.653867 -0.0521838 6.82661e-22)
(0.656104 -0.0512578 1.05375e-21)
(0.658361 -0.0503578 -1.50356e-21)
(0.660637 -0.0494813 -1.44725e-21)
(0.662929 -0.0486264 2.14175e-21)
(0.665238 -0.047791 -1.60444e-21)
(0.667561 -0.0469737 -4.40442e-22)
(0.669898 -0.0461729 1.68067e-21)
(0.672249 -0.0453876 -9.93604e-23)
(0.674612 -0.0446165 -3.12103e-21)
(0.676987 -0.0438589 -6.12266e-23)
(0.679373 -0.043114 3.5724e-21)
(0.68177 -0.0423812 -2.02527e-21)
(0.684178 -0.0416598 2.77059e-21)
(0.686595 -0.0409496 1.66343e-21)
(0.689022 -0.0402502 -1.81405e-21)
(0.691459 -0.0395613 4.24586e-22)
(0.693904 -0.0388827 -1.06485e-21)
(0.696357 -0.0382143 -2.09935e-21)
(0.698819 -0.037556 -6.45698e-22)
(0.701289 -0.0369078 2.71267e-21)
(0.703768 -0.0362698 6.57902e-22)
(0.706253 -0.0356419 -1.81333e-21)
(0.708747 -0.0350242 -1.3548e-21)
(0.711248 -0.034417 2.0679e-21)
(0.713756 -0.0338203 -1.47344e-21)
(0.716272 -0.0332343 1.4723e-21)
(0.718796 -0.0326593 2.47892e-22)
(0.721327 -0.0320954 -1.74808e-22)
(0.723866 -0.031543 3.5865e-22)
(0.726412 -0.0310024 -3.85525e-24)
(0.663178 -0.0690718 -5.99513e-21)
(0.664344 -0.0675298 1.56732e-20)
(0.665318 -0.0661655 -8.7297e-21)
(0.666627 -0.0648106 9.30626e-22)
(0.668063 -0.0634993 -2.14867e-21)
(0.669546 -0.0622477 2.77588e-21)
(0.671082 -0.0610492 -3.3103e-21)
(0.672673 -0.0598974 1.51707e-20)
(0.674312 -0.0587883 -1.84991e-20)
(0.675994 -0.0577184 1.0545e-20)
(0.677714 -0.0566843 -6.53943e-21)
(0.679469 -0.0556829 1.47098e-21)
(0.681256 -0.0547111 5.66863e-21)
(0.683072 -0.0537663 -5.16715e-21)
(0.684914 -0.0528462 2.93093e-21)
(0.686781 -0.0519486 -2.04264e-21)
(0.688671 -0.0510716 1.23509e-21)
(0.690583 -0.0502135 -1.12085e-21)
(0.692515 -0.0493728 -6.6294e-21)
(0.694466 -0.0485484 6.68882e-22)
(0.696435 -0.0477389 5.75197e-21)
(0.698421 -0.0469434 1.28392e-22)
(0.700424 -0.0461612 -1.65122e-23)
(0.702443 -0.0453915 8.0629e-22)
(0.704476 -0.0446337 3.08501e-22)
(0.706525 -0.0438874 3.75461e-21)
(0.708587 -0.0431521 -3.64134e-21)
(0.710664 -0.0424275 -1.14501e-21)
(0.712753 -0.0417135 1.13526e-21)
(0.714855 -0.0410098 -4.39027e-22)
(0.71697 -0.0403163 1.8112e-21)
(0.719097 -0.039633 -3.74685e-21)
(0.721236 -0.0389599 2.46324e-21)
(0.723387 -0.0382971 1.74229e-22)
(0.725549 -0.0376445 -4.07198e-22)
(0.727722 -0.0370024 9.47047e-22)
(0.729907 -0.0363709 -1.96078e-22)
(0.732103 -0.0357501 -7.13498e-22)
(0.73431 -0.0351403 1.79185e-21)
(0.736528 -0.0345418 1.29601e-22)
(0.738758 -0.0339547 -1.48737e-21)
(0.740999 -0.0333794 -5.67592e-22)
(0.743251 -0.0328162 -1.83462e-22)
(0.697401 -0.0707918 -1.00539e-20)
(0.698026 -0.0693437 3.02992e-21)
(0.698446 -0.068066 1.15524e-20)
(0.699234 -0.066771 -7.74285e-21)
(0.700164 -0.0655046 -1.32542e-21)
(0.70115 -0.0642881 9.19698e-21)
(0.7022 -0.0631161 -1.56756e-21)
(0.703314 -0.0619831 -3.12445e-21)
(0.704487 -0.0608865 2.68391e-21)
(0.70571 -0.0598241 -1.63386e-21)
(0.706981 -0.0587931 -1.03999e-20)
(0.708293 -0.0577912 6.71624e-21)
(0.709645 -0.056816 2.10337e-21)
(0.711033 -0.0558653 -5.08572e-21)
(0.712454 -0.0549372 4.79287e-21)
(0.713906 -0.05403 -1.12661e-21)
(0.715386 -0.0531419 -2.72906e-21)
(0.716894 -0.0522715 6.58444e-21)
(0.718427 -0.0514176 3.22229e-22)
(0.719985 -0.0505789 -2.79633e-21)
(0.721566 -0.0497545 -4.33557e-21)
(0.723168 -0.0489435 2.20136e-21)
(0.724792 -0.0481453 -5.19826e-21)
(0.726435 -0.047359 4.30312e-21)
(0.728099 -0.0465843 -1.94113e-21)
(0.729781 -0.0458207 -2.61875e-21)
(0.731481 -0.0450679 6.3192e-21)
(0.733199 -0.0443255 -5.41615e-22)
(0.734934 -0.0435935 -9.66318e-23)
(0.736686 -0.0428716 -9.80597e-22)
(0.738455 -0.0421598 -3.33242e-21)
(0.740239 -0.0414581 2.49132e-21)
(0.742039 -0.0407665 -2.0363e-21)
(0.743855 -0.0400851 3.30258e-21)
(0.745686 -0.039414 -2.67905e-21)
(0.747532 -0.0387534 1.40491e-21)
(0.749393 -0.0381033 1.21617e-21)
(0.751268 -0.0374642 -1.29643e-21)
(0.753159 -0.0368361 8.23682e-22)
(0.755064 -0.0362193 -1.26284e-22)
(0.756984 -0.0356143 -1.80943e-21)
(0.758918 -0.0350212 2.18957e-21)
(0.760868 -0.0344404 2.03e-22)
(0.762833 -0.0338724 -4.27701e-22)
(0.732308 -0.0718472 -4.12187e-21)
(0.732409 -0.0705206 -1.34716e-21)
(0.732291 -0.0693553 7.98106e-22)
(0.732568 -0.0681443 -7.35662e-21)
(0.733001 -0.0669455 1.46254e-21)
(0.733497 -0.0657856 1.48047e-20)
(0.734064 -0.06466 -8.68906e-21)
(0.734705 -0.0635646 9.97727e-22)
(0.735412 -0.0624982 3.49163e-21)
(0.736178 -0.0614595 5.9746e-23)
(0.736999 -0.0604471 -1.00129e-20)
(0.737869 -0.0594592 8.76672e-21)
(0.738786 -0.0584942 -6.08462e-21)
(0.739745 -0.0575505 -3.40336e-21)
(0.740743 -0.0566267 -2.37795e-21)
(0.741778 -0.0557213 1.09497e-20)
(0.742847 -0.0548331 -1.03629e-20)
(0.743949 -0.0539609 9.48269e-21)
(0.745081 -0.0531037 -1.88342e-21)
(0.746243 -0.0522605 -4.26085e-21)
(0.747433 -0.0514304 7.59064e-21)
(0.748649 -0.0506128 -8.73123e-21)
(0.74989 -0.0498071 9.13135e-21)
(0.751156 -0.0490126 4.451e-21)
(0.752446 -0.048229 -6.92659e-21)
(0.753759 -0.0474559 3.82231e-21)
(0.755094 -0.0466931 -6.9731e-21)
(0.756451 -0.0459403 -2.2128e-21)
(0.757828 -0.0451973 9.2186e-21)
(0.759227 -0.0444642 -3.58963e-21)
(0.760645 -0.0437409 -2.08474e-21)
(0.762084 -0.0430273 6.24337e-21)
(0.763541 -0.0423237 -5.47788e-21)
(0.765018 -0.04163 2.80363e-21)
(0.766514 -0.0409464 -3.85364e-21)
(0.768028 -0.0402731 1.30674e-21)
(0.769561 -0.0396104 1.15501e-21)
(0.771112 -0.0389585 1.26617e-21)
(0.772681 -0.0383176 -1.28658e-22)
(0.774268 -0.0376881 -1.36394e-21)
(0.775874 -0.0370702 1.24334e-21)
(0.777498 -0.0364645 2.3692e-22)
(0.77914 -0.0358711 -2.19688e-21)
(0.7808 -0.0352907 2.74986e-21)
(0.767569 -0.0722574 1.03947e-20)
(0.767172 -0.0710756 -1.06667e-20)
(0.766539 -0.0700454 -5.29475e-21)
(0.766324 -0.0689399 -6.41055e-21)
(0.766275 -0.0678294 9.64145e-21)
(0.766292 -0.0667458 3.76557e-21)
(0.766388 -0.0656855 -1.13069e-20)
(0.766566 -0.0646454 2.74857e-22)
(0.766816 -0.0636259 1.99845e-20)
(0.767133 -0.062627 -1.73446e-21)
(0.76751 -0.061648 -4.11269e-21)
(0.767944 -0.0606882 -1.05388e-20)
(0.76843 -0.0597468 1.25389e-21)
(0.768964 -0.0588227 1.14754e-20)
(0.769543 -0.0579152 -6.35674e-21)
(0.770165 -0.0570231 2.05357e-21)
(0.770826 -0.0561457 -1.39448e-21)
(0.771525 -0.0552821 3.99822e-21)
(0.77226 -0.0544315 -5.17548e-21)
(0.773028 -0.0535933 -5.47968e-21)
(0.773829 -0.0527667 1.0917e-20)
(0.77466 -0.0519513 -6.34569e-21)
(0.775522 -0.0511465 6.73985e-21)
(0.776412 -0.050352 -1.37403e-21)
(0.77733 -0.0495675 6.70025e-22)
(0.778274 -0.0487926 -4.95851e-21)
(0.779245 -0.0480272 2.7226e-21)
(0.780241 -0.0472712 -1.89204e-21)
(0.781262 -0.0465244 6.67089e-22)
(0.782307 -0.0457869 2.52294e-21)