# Probe 0 (2 -0.5 0)
# Probe 1 (2 0.5 0)
#       Probe             0             1
#        Time
        0.005      -10.2498      -10.2498
         0.01    -0.0172194    -0.0172182
        0.015     -0.212066     -0.212066
         0.02      -0.20654      -0.20654
        0.025     -0.205584     -0.205584
         0.03     -0.195256     -0.195256
        0.035     -0.182322     -0.182322
         0.04     -0.169447     -0.169447
        0.045      -0.15764      -0.15764
         0.05     -0.147169     -0.147169
        0.055     -0.137994     -0.137994
         0.06     -0.129976     -0.129976
        0.065     -0.122948     -0.122948
         0.07     -0.116759     -0.116759
        0.075     -0.111272     -0.111272
         0.08     -0.106372     -0.106372
        0.085     -0.101972     -0.101972
         0.09    -0.0979963    -0.0979963
        0.095    -0.0943886    -0.0943887
          0.1    -0.0910888    -0.0910888
        0.105    -0.0880588    -0.0880588
         0.11    -0.0852625    -0.0852625
        0.115    -0.0826757    -0.0826757
         0.12    -0.0802691    -0.0802691
        0.125    -0.0780285    -0.0780285
         0.13    -0.0759319    -0.0759319
        0.135    -0.0739653    -0.0739653
         0.14    -0.0721135    -0.0721135
        0.145     -0.070367     -0.070367
         0.15    -0.0687171    -0.0687171
        0.155    -0.0671634    -0.0671634
         0.16    -0.0656802    -0.0656802
        0.165    -0.0642714    -0.0642714
         0.17    -0.0629318    -0.0629319
        0.175    -0.0616556    -0.0616556
         0.18    -0.0604355    -0.0604355
        0.185      -0.05927      -0.05927
         0.19    -0.0581541    -0.0581541
        0.195    -0.0570846    -0.0570846
          0.2    -0.0560602    -0.0560603
        0.205    -0.0550726    -0.0550726
         0.21    -0.0541263    -0.0541263
        0.215    -0.0532167    -0.0532167
         0.22    -0.0523371    -0.0523371
        0.225    -0.0514916    -0.0514916
         0.23    -0.0506744    -0.0506744
        0.235     -0.049889     -0.049889
         0.24    -0.0491285    -0.0491285
        0.245    -0.0483936    -0.0483936
         0.25    -0.0476806    -0.0476806
        0.255    -0.0469954    -0.0469954
         0.26    -0.0463264    -0.0463265
        0.265    -0.0456804    -0.0456804
         0.27    -0.0450542    -0.0450542
        0.275    -0.0444468    -0.0444468
         0.28     -0.043858     -0.043858
        0.285    -0.0432831    -0.0432831
         0.29    -0.0427274    -0.0427274
        0.295    -0.0421873    -0.0421873
          0.3    -0.0416622    -0.0416622
        0.305    -0.0411512    -0.0411512
         0.31    -0.0406544    -0.0406544
        0.315    -0.0401706    -0.0401706
         0.32     -0.039696     -0.039696
        0.325    -0.0392449     -0.039245
         0.33    -0.0387967    -0.0387967
        0.335    -0.0383616    -0.0383617
         0.34    -0.0379376    -0.0379376
        0.345    -0.0375247    -0.0375248
         0.35     -0.037122     -0.037122
        0.355    -0.0367295    -0.0367295
         0.36    -0.0363451    -0.0363451
        0.365    -0.0359713    -0.0359713
         0.37    -0.0356067    -0.0356068
        0.375    -0.0352506    -0.0352506
         0.38     -0.034905     -0.034905
        0.385    -0.0345645    -0.0345645
         0.39    -0.0342336    -0.0342336
        0.395    -0.0339108    -0.0339108
          0.4    -0.0335985    -0.0335986
        0.405    -0.0332857    -0.0332857
         0.41    -0.0329848    -0.0329848
        0.415    -0.0326912    -0.0326912
         0.42    -0.0324045    -0.0324045
        0.425    -0.0321228    -0.0321228
         0.43    -0.0318489    -0.0318489
        0.435    -0.0315812    -0.0315813
         0.44    -0.0313197    -0.0313198
        0.445    -0.0310641    -0.0310641
         0.45    -0.0308143    -0.0308143
        0.455    -0.0305704    -0.0305704
         0.46    -0.0303327    -0.0303327
        0.465    -0.0300984    -0.0300984
         0.47     -0.029871     -0.029871
        0.475    -0.0296483    -0.0296484
         0.48    -0.0294292    -0.0294292
        0.485    -0.0292223    -0.0292224
         0.49     -0.029015    -0.0290151
        0.495    -0.0288084    -0.0288084
          0.5     -0.028617     -0.028617
        0.505    -0.0284246    -0.0284246
         0.51    -0.0282364    -0.0282364
        0.515    -0.0280529     -0.028053
         0.52     -0.027874     -0.027874
        0.525    -0.0276999    -0.0276999
         0.53    -0.0275298    -0.0275298
        0.535    -0.0273641    -0.0273641
         0.54    -0.0272027    -0.0272027
        0.545    -0.0270455    -0.0270455
         0.55    -0.0268926    -0.0268927
        0.555     -0.026743     -0.026743
         0.56    -0.0265977    -0.0265977
        0.565     -0.026457     -0.026457
         0.57      -0.02632      -0.02632
        0.575    -0.0261864    -0.0261864
         0.58    -0.0260569    -0.0260569
        0.585    -0.0259313    -0.0259313
         0.59    -0.0258093    -0.0258093
        0.595     -0.025691     -0.025691
          0.6    -0.0255765    -0.0255765
        0.605    -0.0254662    -0.0254662
         0.61    -0.0253622    -0.0253622
        0.615    -0.0252506    -0.0252507
         0.62    -0.0251505    -0.0251505
        0.625    -0.0250538    -0.0250538
         0.63    -0.0249605    -0.0249605
        0.635    -0.0248705    -0.0248705
         0.64    -0.0247836    -0.0247836
        0.645       -0.0247       -0.0247
         0.65    -0.0246209     -0.024621
        0.655    -0.0245429    -0.0245429
         0.66    -0.0244692    -0.0244692
        0.665    -0.0243985    -0.0243985
         0.67    -0.0243279    -0.0243279
        0.675    -0.0242697    -0.0242697
         0.68    -0.0242083    -0.0242083
        0.685    -0.0241508    -0.0241508
         0.69    -0.0240963    -0.0240963
        0.695    -0.0240444    -0.0240444
          0.7     -0.023996     -0.023996
        0.705    -0.0239507    -0.0239507
         0.71    -0.0239085    -0.0239085
        0.715    -0.0238693    -0.0238693
         0.72    -0.0238325    -0.0238325
        0.725    -0.0238007    -0.0238007
         0.73    -0.0237706    -0.0237706
        0.735    -0.0237436    -0.0237436
         0.74    -0.0237195    -0.0237195
        0.745    -0.0236984    -0.0236984
         0.75    -0.0236803    -0.0236803
        0.755     -0.023665     -0.023665
         0.76    -0.0236517    -0.0236517
        0.765    -0.0236433    -0.0236433
         0.77    -0.0236362    -0.0236362
        0.775    -0.0236316    -0.0236316
         0.78    -0.0236282    -0.0236282
        0.785    -0.0236365    -0.0236365
         0.79    -0.0236428    -0.0236427
        0.795    -0.0236505    -0.0236505
          0.8    -0.0236611    -0.0236611
        0.805    -0.0236739    -0.0236739
         0.81    -0.0236916    -0.0236916
        0.815     -0.023711     -0.023711
         0.82    -0.0237331    -0.0237331
        0.825    -0.0237576    -0.0237576
         0.83    -0.0237865    -0.0237865
        0.835    -0.0238162    -0.0238162
         0.84    -0.0238488    -0.0238488
        0.845    -0.0238853    -0.0238852
         0.85     -0.023924     -0.023924
        0.855    -0.0239668    -0.0239668
         0.86    -0.0240116    -0.0240116
        0.865    -0.0240592    -0.0240592
         0.87    -0.0241096    -0.0241096
        0.875    -0.0241625    -0.0241625
         0.88    -0.0242212    -0.0242212
        0.885    -0.0242816    -0.0242816
         0.89     -0.024334     -0.024334
        0.895    -0.0243986    -0.0243987
          0.9    -0.0244644    -0.0244644
        0.905    -0.0245354    -0.0245354
         0.91    -0.0246077    -0.0246077
        0.915    -0.0246825    -0.0246825
         0.92    -0.0247599    -0.0247599
        0.925    -0.0248398    -0.0248398
         0.93    -0.0249219    -0.0249219
        0.935    -0.0250085    -0.0250085
         0.94    -0.0250942    -0.0250942
        0.945     -0.025188     -0.025188
         0.95    -0.0252814    -0.0252813
        0.955    -0.0253783    -0.0253783
         0.96    -0.0254764    -0.0254764
        0.965    -0.0255774    -0.0255774
         0.97    -0.0256811    -0.0256811
        0.975    -0.0257875    -0.0257875
         0.98    -0.0258965    -0.0258965
        0.985    -0.0260075    -0.0260075
         0.99     -0.026123     -0.026123
        0.995    -0.0262399    -0.0262399
            1    -0.0263586    -0.0263586
        1.005    -0.0264818    -0.0264818
         1.01    -0.0266065    -0.0266065
        1.015    -0.0267336    -0.0267336
         1.02    -0.0268633    -0.0268633
        1.025    -0.0269957    -0.0269957
         1.03    -0.0271305    -0.0271305
        1.035    -0.0272679    -0.0272679
         1.04    -0.0274078    -0.0274078
        1.045      -0.02755      -0.02755
         1.05    -0.0276941    -0.0276941
        1.055    -0.0278435    -0.0278434
         1.06    -0.0279935    -0.0279935
        1.065    -0.0281459    -0.0281459
         1.07    -0.0283008    -0.0283008
        1.075    -0.0284581    -0.0284581
         1.08    -0.0286179    -0.0286179
        1.085    -0.0287803    -0.0287803
         1.09    -0.0289451    -0.0289451
        1.095    -0.0291124    -0.0291123
          1.1    -0.0292819    -0.0292819
        1.105    -0.0294533    -0.0294533
         1.11    -0.0296288    -0.0296288
        1.115     -0.029805    -0.0298049
         1.12    -0.0299857    -0.0299857
        1.125    -0.0301673    -0.0301673
         1.13    -0.0303512    -0.0303512
        1.135    -0.0305376    -0.0305376
         1.14    -0.0307263    -0.0307263
        1.145    -0.0309173    -0.0309173
         1.15    -0.0311107    -0.0311107
        1.155    -0.0313063    -0.0313062
         1.16    -0.0315043    -0.0315043
        1.165    -0.0317048    -0.0317048
         1.17    -0.0319071    -0.0319071
        1.175    -0.0321106    -0.0321106
         1.18     -0.032316     -0.032316
        1.185    -0.0325277    -0.0325277
         1.19    -0.0327451    -0.0327451
        1.195    -0.0329589    -0.0329589
          1.2    -0.0331745    -0.0331745
        1.205    -0.0333925    -0.0333925
         1.21    -0.0336124    -0.0336124
        1.215    -0.0338357    -0.0338357
         1.22    -0.0340607    -0.0340607
        1.225    -0.0342878    -0.0342878
         1.23     -0.034517     -0.034517
        1.235    -0.0347485    -0.0347485
         1.24     -0.034982     -0.034982
        1.245    -0.0352178    -0.0352178
         1.25    -0.0354555    -0.0354555
        1.255    -0.0356946    -0.0356946
         1.26    -0.0359378    -0.0359378
        1.265    -0.0361821    -0.0361821
         1.27    -0.0364291    -0.0364291
        1.275    -0.0366771    -0.0366771
         1.28    -0.0369273    -0.0369273
        1.285    -0.0371797    -0.0371797
         1.29    -0.0374343    -0.0374343
        1.295    -0.0376916    -0.0376916
          1.3    -0.0379531    -0.0379531
        1.305    -0.0382064    -0.0382064
         1.31    -0.0384666    -0.0384666
        1.315    -0.0387312    -0.0387312
         1.32    -0.0389979     -0.038998
        1.325    -0.0392663    -0.0392663
         1.33    -0.0395361    -0.0395361
        1.335    -0.0398071    -0.0398071
         1.34    -0.0400816    -0.0400817
        1.345    -0.0403582    -0.0403582
         1.35    -0.0406354    -0.0406354
        1.355    -0.0409142    -0.0409142
         1.36    -0.0411948    -0.0411948
        1.365    -0.0414772    -0.0414772
         1.37    -0.0417611    -0.0417611
        1.375    -0.0420474    -0.0420474
         1.38    -0.0423339    -0.0423339
        1.385    -0.0426272    -0.0426272
         1.39    -0.0429182    -0.0429182
        1.395    -0.0432109     -0.043211
          1.4    -0.0435055    -0.0435055
        1.405    -0.0438021    -0.0438021
         1.41    -0.0440986    -0.0440986
        1.415    -0.0443989    -0.0443989
         1.42    -0.0447003    -0.0447003
        1.425    -0.0450033    -0.0450033
         1.43     -0.045308     -0.045308
        1.435    -0.0456152    -0.0456152
         1.44    -0.0459226    -0.0459226
        1.445    -0.0462315    -0.0462316
         1.45    -0.0465421    -0.0465421
        1.455    -0.0468542    -0.0468543
         1.46    -0.0471679    -0.0471679
        1.465    -0.0474829    -0.0474829
         1.47    -0.0477996    -0.0477997
        1.475    -0.0481179    -0.0481179
         1.48    -0.0484374    -0.0484374
        1.485    -0.0487582    -0.0487582
         1.49      -0.04908      -0.04908
        1.495    -0.0494043    -0.0494043
          1.5    -0.0497301    -0.0497301
        1.505    -0.0500564    -0.0500564
         1.51     -0.050384     -0.050384
        1.515    -0.0507126    -0.0507126
         1.52    -0.0510428    -0.0510428
        1.525     -0.051375     -0.051375
         1.53    -0.0517091    -0.0517091
        1.535    -0.0520431    -0.0520432
         1.54    -0.0523783    -0.0523783
        1.545    -0.0527151    -0.0527151
         1.55    -0.0530529    -0.0530529
        1.555    -0.0533918    -0.0533918
         1.56    -0.0537321    -0.0537321
        1.565    -0.0540735    -0.0540735
         1.57    -0.0544158    -0.0544158
        1.575     -0.054759     -0.054759
         1.58    -0.0551053    -0.0551053
        1.585     -0.055451    -0.0554511
         1.59    -0.0557979    -0.0557979
        1.595    -0.0561459    -0.0561459
          1.6    -0.0564949    -0.0564949
        1.605     -0.056845     -0.056845
         1.61     -0.057196    -0.0571961
        1.615     -0.057548     -0.057548
         1.62    -0.0579005    -0.0579005
        1.625    -0.0582549    -0.0582549
         1.63    -0.0586112    -0.0586112
        1.635    -0.0589669    -0.0589669
         1.64    -0.0593238    -0.0593238
        1.645    -0.0596814    -0.0596814
         1.65    -0.0600398    -0.0600398
        1.655    -0.0603984    -0.0603984
         1.66    -0.0607603    -0.0607603
        1.665    -0.0611215    -0.0611215
         1.67    -0.0614836    -0.0614836
        1.675    -0.0618463    -0.0618463
         1.68    -0.0622098    -0.0622098
        1.685    -0.0625742    -0.0625742
         1.69    -0.0629393    -0.0629393
        1.695    -0.0633052    -0.0633052
          1.7    -0.0636718    -0.0636718
        1.705    -0.0640393    -0.0640393
         1.71    -0.0644073    -0.0644073
        1.715     -0.064776     -0.064776
         1.72    -0.0651452    -0.0651452
        1.725    -0.0655147    -0.0655147
         1.73    -0.0658854    -0.0658854
        1.735    -0.0662577    -0.0662577
         1.74    -0.0666294    -0.0666294
        1.745    -0.0670031    -0.0670031
         1.75     -0.067376     -0.067376
        1.755    -0.0677494    -0.0677494
         1.76    -0.0681234    -0.0681234
        1.765    -0.0684986    -0.0684986
         1.77    -0.0688731    -0.0688731
        1.775    -0.0692491    -0.0692491
         1.78    -0.0696251    -0.0696251
        1.785    -0.0700018    -0.0700018
         1.79    -0.0703788    -0.0703788
        1.795    -0.0707564    -0.0707564
          1.8    -0.0711343    -0.0711343
        1.805    -0.0715125    -0.0715125
         1.81     -0.071891     -0.071891
        1.815    -0.0722695    -0.0722695
         1.82    -0.0726469     -0.072647
        1.825    -0.0730274    -0.0730274
         1.83    -0.0734098    -0.0734099
        1.835    -0.0737906    -0.0737907
         1.84    -0.0741739     -0.074174
        1.845    -0.0745571    -0.0745571
         1.85    -0.0749385    -0.0749385
        1.855    -0.0753199    -0.0753199
         1.86    -0.0757017    -0.0757017
        1.865    -0.0760838    -0.0760838
         1.87    -0.0764663    -0.0764663
        1.875    -0.0768491    -0.0768491
         1.88    -0.0772321    -0.0772321
        1.885    -0.0776153    -0.0776153
         1.89    -0.0779987    -0.0779987
        1.895    -0.0783822    -0.0783822
          1.9    -0.0787653    -0.0787654
        1.905    -0.0791501    -0.0791501
         1.91    -0.0795347    -0.0795347
        1.915    -0.0799188    -0.0799188
         1.92     -0.080303     -0.080303
        1.925    -0.0806873    -0.0806874
         1.93    -0.0810718    -0.0810718
        1.935    -0.0814564    -0.0814564
         1.94    -0.0818409     -0.081841
        1.945    -0.0822253    -0.0822253
         1.95    -0.0826091    -0.0826092
        1.955    -0.0829951    -0.0829951
         1.96    -0.0833814    -0.0833815
        1.965    -0.0837663    -0.0837663
         1.97    -0.0841506    -0.0841506
        1.975    -0.0845349    -0.0845349
         1.98     -0.084919     -0.084919
        1.985     -0.085304     -0.085304
         1.99    -0.0856894    -0.0856894
        1.995     -0.086074    -0.0860741
            2    -0.0864586    -0.0864586
        2.005    -0.0868431    -0.0868431
         2.01    -0.0872277    -0.0872277
        2.015    -0.0876124    -0.0876124
         2.02    -0.0879976    -0.0879977
        2.025    -0.0883817    -0.0883817
         2.03    -0.0887629    -0.0887629
        2.035    -0.0891433    -0.0891433
         2.04    -0.0895279    -0.0895279
        2.045    -0.0899115    -0.0899115
         2.05    -0.0902948    -0.0902949
        2.055    -0.0906778    -0.0906778
         2.06    -0.0910599    -0.0910599
        2.065    -0.0914434    -0.0914434
         2.07    -0.0918257    -0.0918257
        2.075    -0.0922089    -0.0922089
         2.08    -0.0925912    -0.0925912
        2.085    -0.0929724    -0.0929724
         2.09    -0.0933539    -0.0933539
        2.095    -0.0937351    -0.0937351
          2.1    -0.0941164    -0.0941165
        2.105    -0.0944968    -0.0944968
         2.11    -0.0948767    -0.0948767
        2.115    -0.0952566    -0.0952566
         2.12    -0.0956361    -0.0956361
        2.125    -0.0960153    -0.0960154
         2.13    -0.0963942    -0.0963943
        2.135    -0.0967726    -0.0967726
         2.14    -0.0971506    -0.0971506
        2.145    -0.0975296    -0.0975296
         2.15    -0.0979071    -0.0979072
        2.155    -0.0982842    -0.0982842
         2.16    -0.0986609    -0.0986609
        2.165    -0.0990372    -0.0990372
         2.17    -0.0994131    -0.0994131
        2.175    -0.0997885    -0.0997886
         2.18     -0.100163     -0.100163
        2.185     -0.100538     -0.100538
         2.19     -0.100911     -0.100911
        2.195     -0.101287     -0.101287
          2.2     -0.101663     -0.101663
        2.205     -0.102035     -0.102035
         2.21     -0.102407     -0.102407
        2.215     -0.102778     -0.102778
         2.22     -0.103151     -0.103151
        2.225     -0.103522     -0.103522
         2.23     -0.103892     -0.103892
        2.235     -0.104261     -0.104261
         2.24     -0.104632     -0.104632
        2.245     -0.105001     -0.105001
         2.25      -0.10537      -0.10537
        2.255     -0.105738     -0.105738
         2.26     -0.106106     -0.106106
        2.265     -0.106473     -0.106473
         2.27     -0.106839     -0.106839
        2.275     -0.107205     -0.107205
         2.28      -0.10757      -0.10757
        2.285     -0.107934     -0.107934
         2.29       -0.1083       -0.1083
        2.295     -0.108663     -0.108663
          2.3     -0.109026     -0.109026
        2.305     -0.109388     -0.109388
         2.31      -0.10975      -0.10975
        2.315     -0.110111     -0.110111
         2.32     -0.110474     -0.110474
        2.325     -0.110834     -0.110834
         2.33     -0.111193     -0.111193
        2.335     -0.111552     -0.111552
         2.34      -0.11191      -0.11191
        2.345     -0.112268     -0.112268
         2.35     -0.112625     -0.112625
        2.355     -0.112981     -0.112981
         2.36     -0.113337     -0.113337
        2.365     -0.113693     -0.113693
         2.37     -0.114047     -0.114047
        2.375     -0.114401     -0.114401
         2.38     -0.114754     -0.114754
        2.385     -0.115106     -0.115106
         2.39     -0.115458     -0.115458
        2.395     -0.115809     -0.115809
          2.4      -0.11616      -0.11616
        2.405      -0.11651      -0.11651
         2.41      -0.11686      -0.11686
        2.415     -0.117208     -0.117208
         2.42     -0.117555     -0.117555
        2.425     -0.117902     -0.117902
         2.43     -0.118249     -0.118249
        2.435     -0.118594     -0.118594
         2.44     -0.118939     -0.118939
        2.445     -0.119284     -0.119284
         2.45     -0.119628     -0.119628
        2.455     -0.119971     -0.119971
         2.46     -0.120312     -0.120312
        2.465     -0.120654     -0.120654
         2.47     -0.120994     -0.120994
        2.475     -0.121334     -0.121334
         2.48     -0.121673     -0.121673
        2.485     -0.122011     -0.122011
         2.49     -0.122349     -0.122349
        2.495     -0.122686     -0.122686
          2.5     -0.123022     -0.123022
        2.505     -0.123358     -0.123358
         2.51     -0.123692     -0.123692
        2.515     -0.124026     -0.124026
         2.52     -0.124359     -0.124359
        2.525     -0.124692     -0.124692
         2.53     -0.125023     -0.125023
        2.535     -0.125354     -0.125354
         2.54     -0.125684     -0.125684
        2.545     -0.126013     -0.126013
         2.55     -0.126341     -0.126341
        2.555     -0.126669     -0.126669
         2.56     -0.126996     -0.126996
        2.565     -0.127322     -0.127322
         2.57     -0.127647     -0.127647
        2.575     -0.127973     -0.127973
         2.58     -0.128297     -0.128297
        2.585     -0.128621     -0.128621
         2.59     -0.128943     -0.128943
        2.595     -0.129264     -0.129264
          2.6     -0.129584     -0.129584
        2.605     -0.129904     -0.129904
         2.61     -0.130223     -0.130223
        2.615     -0.130541     -0.130541
         2.62     -0.130859     -0.130859
        2.625     -0.131175     -0.131175
         2.63     -0.131491     -0.131491
        2.635     -0.131806     -0.131806
         2.64      -0.13212      -0.13212
        2.645     -0.132433     -0.132433
         2.65     -0.132746     -0.132746
        2.655     -0.133057     -0.133057
         2.66     -0.133368     -0.133368
        2.665     -0.133678     -0.133678
         2.67     -0.133987     -0.133987
        2.675     -0.134296     -0.134296
         2.68     -0.134603     -0.134603
        2.685      -0.13491      -0.13491
         2.69     -0.135216     -0.135216
        2.695     -0.135521     -0.135521
          2.7     -0.135825     -0.135825
        2.705     -0.136129     -0.136129
         2.71     -0.136432     -0.136432
        2.715     -0.136734     -0.136734
         2.72     -0.137035     -0.137035
        2.725     -0.137335     -0.137335
         2.73     -0.137634     -0.137634
        2.735     -0.137932     -0.137932
         2.74      -0.13823      -0.13823
        2.745     -0.138527     -0.138527
         2.75     -0.138822     -0.138823
        2.755     -0.139118     -0.139118
         2.76     -0.139412     -0.139412
        2.765     -0.139705     -0.139705
         2.77     -0.139998     -0.139998
        2.775      -0.14029      -0.14029
         2.78     -0.140581     -0.140581
        2.785     -0.140872     -0.140872
         2.79     -0.141161     -0.141161
        2.795     -0.141449     -0.141449
          2.8     -0.141736     -0.141736
        2.805     -0.142023     -0.142023
         2.81     -0.142309     -0.142309
        2.815     -0.142594     -0.142594
         2.82     -0.142878     -0.142878
        2.825     -0.143161     -0.143161
         2.83     -0.143444     -0.143444
        2.835     -0.143725     -0.143725
         2.84     -0.144006     -0.144006
        2.845     -0.144285     -0.144285
         2.85     -0.144565     -0.144565
        2.855     -0.144844     -0.144844
         2.86     -0.145122     -0.145122
        2.865     -0.145398     -0.145398
         2.87     -0.145674     -0.145674
        2.875     -0.145949     -0.145949
         2.88     -0.146223     -0.146223
        2.885     -0.146496     -0.146496
         2.89     -0.146768     -0.146768
        2.895      -0.14704      -0.14704
          2.9     -0.147311     -0.147311
        2.905      -0.14758      -0.14758
         2.91      -0.14785      -0.14785
        2.915     -0.148118     -0.148118
         2.92     -0.148385     -0.148385
        2.925     -0.148652     -0.148652
         2.93     -0.148917     -0.148917
        2.935     -0.149182     -0.149182
         2.94     -0.149446     -0.149446
        2.945     -0.149709     -0.149709
         2.95     -0.149972     -0.149972
        2.955     -0.150233     -0.150233
         2.96     -0.150494     -0.150494
        2.965     -0.150754     -0.150754
         2.97     -0.151013     -0.151013
        2.975     -0.151271     -0.151271
         2.98     -0.151528     -0.151528
        2.985     -0.151785     -0.151785
         2.99      -0.15204      -0.15204
        2.995     -0.152295     -0.152295
            3     -0.152549     -0.152549
        3.005     -0.152803     -0.152803
         3.01     -0.153056     -0.153056
        3.015     -0.153308     -0.153308
         3.02     -0.153559     -0.153559
        3.025     -0.153808     -0.153808
         3.03     -0.154057     -0.154057
        3.035     -0.154305     -0.154306
         3.04     -0.154553     -0.154553
        3.045     -0.154799     -0.154799
         3.05     -0.155045     -0.155045
        3.055      -0.15529      -0.15529
         3.06     -0.155534     -0.155534
        3.065     -0.155778     -0.155778
         3.07      -0.15602      -0.15602
        3.075     -0.156262     -0.156262
         3.08     -0.156503     -0.156503
        3.085     -0.156743     -0.156743
         3.09     -0.156982     -0.156982
        3.095     -0.157221     -0.157221
          3.1     -0.157459     -0.157459
        3.105     -0.157695     -0.157695
         3.11     -0.157932     -0.157932
        3.115     -0.158167     -0.158167
         3.12     -0.158401     -0.158401
        3.125     -0.158635     -0.158635
         3.13     -0.158868     -0.158868
        3.135       -0.1591       -0.1591
         3.14     -0.159331     -0.159331
        3.145     -0.159562     -0.159562
         3.15     -0.159791     -0.159791
        3.155      -0.16002      -0.16002
         3.16     -0.160248     -0.160248
        3.165     -0.160475     -0.160475
         3.17     -0.160702     -0.160702
        3.175     -0.160927     -0.160927
         3.18     -0.161152     -0.161153
        3.185     -0.161377     -0.161377
         3.19     -0.161601     -0.161601
        3.195     -0.161823     -0.161823
          3.2     -0.162045     -0.162045
        3.205     -0.162266     -0.162266
         3.21     -0.162486     -0.162486
        3.215     -0.162705     -0.162705
         3.22     -0.162923     -0.162923
        3.225     -0.163142     -0.163142
         3.23      -0.16336      -0.16336
        3.235     -0.163576     -0.163576
         3.24     -0.163792     -0.163792
        3.245     -0.164007     -0.164007
         3.25     -0.164221     -0.164221
        3.255     -0.164434     -0.164434
         3.26     -0.164647     -0.164647
        3.265     -0.164859     -0.164859
         3.27     -0.165071     -0.165071
        3.275     -0.165281     -0.165281
         3.28      -0.16549      -0.16549
        3.285     -0.165699     -0.165699
         3.29     -0.165907     -0.165907
        3.295     -0.166114     -0.166114
          3.3     -0.166321     -0.166321
        3.305     -0.166527     -0.166527
         3.31     -0.166732     -0.166732
        3.315     -0.166936     -0.166936
         3.32     -0.167139     -0.167139
        3.325     -0.167342     -0.167342
         3.33     -0.167544     -0.167544
        3.335     -0.167745     -0.167745
         3.34     -0.167946     -0.167946
        3.345     -0.168145     -0.168145
         3.35     -0.168344     -0.168344
        3.355     -0.168543     -0.168543
         3.36      -0.16874      -0.16874
        3.365     -0.168937     -0.168937
         3.37     -0.169133     -0.169133
        3.375     -0.169328     -0.169328
         3.38     -0.169523     -0.169523
        3.385     -0.169717     -0.169717
         3.39      -0.16991      -0.16991
        3.395     -0.170103     -0.170103
          3.4     -0.170295     -0.170295
        3.405     -0.170486     -0.170486
         3.41     -0.170677     -0.170677
        3.415     -0.170866     -0.170866
         3.42     -0.171055     -0.171055
        3.425     -0.171243     -0.171243
         3.43     -0.171431     -0.171431
        3.435     -0.171618     -0.171618
         3.44     -0.171804     -0.171804
        3.445     -0.171989     -0.171989
         3.45     -0.172174     -0.172174
        3.455     -0.172358     -0.172358
         3.46     -0.172541     -0.172541
        3.465     -0.172724     -0.172724
         3.47     -0.172906     -0.172906
        3.475     -0.173087     -0.173087
         3.48     -0.173267     -0.173268
        3.485     -0.173447     -0.173447
         3.49     -0.173627     -0.173627
        3.495     -0.173805     -0.173805
          3.5     -0.173983     -0.173983
        3.505      -0.17416      -0.17416
         3.51     -0.174336     -0.174336
        3.515     -0.174512     -0.174512
         3.52     -0.174687     -0.174687
        3.525     -0.174862     -0.174862
         3.53     -0.175035     -0.175035
        3.535     -0.175209     -0.175209
         3.54     -0.175381     -0.175381
        3.545     -0.175553     -0.175553
         3.55     -0.175724     -0.175724
        3.555     -0.175894     -0.175894