# Probe 0 (2 -0.5 0)
# Probe 1 (2 0.5 0)
#       Probe             0             1
#        Time
        0.005             (0.947673 0.0432185 5.48011e-18)             (0.947673 -0.0432185 -5.65282e-18)
         0.01             (0.951511 0.0353517 8.06011e-21)             (0.951511 -0.0353517 -8.15155e-21)
        0.015             (0.950522 0.0346888 1.13429e-19)             (0.950522 -0.0346888 -1.16879e-19)
         0.02             (0.949618 0.0346726 1.10576e-19)             (0.949618 -0.0346726 -1.13986e-19)
        0.025             (0.948589 0.0350189 1.10005e-19)             (0.948589 -0.0350189 -1.13422e-19)
         0.03             (0.947538 0.0355166 1.04437e-19)             (0.947538 -0.0355166 -1.07692e-19)
        0.035             (0.946504 0.0360785 9.74974e-20)             (0.946504 -0.0360785 -1.00542e-19)
         0.04             (0.945502 0.0366639 9.06018e-20)             (0.945502 -0.0366639 -9.34335e-20)
        0.045             (0.944537 0.0372536 8.42839e-20)             (0.944537 -0.0372536 -8.69194e-20)
         0.05             (0.943609 0.037839 7.86835e-20)             (0.943609 -0.037839 -8.11445e-20)
        0.055             (0.942713 0.0384161 7.37777e-20)             (0.942713 -0.0384161 -7.60855e-20)
         0.06             (0.941847 0.0389837 6.94912e-20)             (0.941847 -0.0389837 -7.16649e-20)
        0.065             (0.941008 0.0395418 6.57344e-20)             (0.941008 -0.0395418 -6.77904e-20)
         0.07             (0.940193 0.0400907 6.24259e-20)             (0.940193 -0.0400907 -6.43782e-20)
        0.075             (0.939398 0.0406313 5.94933e-20)             (0.939398 -0.0406313 -6.13536e-20)
         0.08             (0.938622 0.0411642 5.6874e-20)             (0.938622 -0.0411642 -5.86522e-20)
        0.085             (0.937862 0.0416903 5.45225e-20)             (0.937862 -0.0416903 -5.62268e-20)
         0.09             (0.937117 0.0422102 5.23975e-20)             (0.937117 -0.0422102 -5.40351e-20)
        0.095             (0.936385 0.0427246 5.04693e-20)             (0.936385 -0.0427246 -5.20463e-20)
          0.1             (0.935665 0.043234 4.87055e-20)             (0.935665 -0.043234 -5.02271e-20)
        0.105             (0.934955 0.0437391 4.7086e-20)             (0.934955 -0.0437391 -4.85567e-20)
         0.11             (0.934255 0.0442402 4.55914e-20)             (0.934255 -0.0442402 -4.70151e-20)
        0.115             (0.933563 0.0447378 4.42087e-20)             (0.933563 -0.0447378 -4.55889e-20)
         0.12             (0.93288 0.0452322 4.29224e-20)             (0.93288 -0.0452322 -4.42621e-20)
        0.125             (0.932203 0.0457238 4.17247e-20)             (0.932203 -0.0457238 -4.30268e-20)
         0.13             (0.931533 0.0462129 4.06041e-20)             (0.931533 -0.0462129 -4.18709e-20)
        0.135             (0.930868 0.0466997 3.95529e-20)             (0.930868 -0.0466997 -4.07866e-20)
         0.14             (0.930209 0.0471846 3.8563e-20)             (0.930209 -0.0471846 -3.97656e-20)
        0.145             (0.929556 0.0476676 3.76295e-20)             (0.929556 -0.0476676 -3.88027e-20)
         0.15             (0.928906 0.048149 3.67476e-20)             (0.928906 -0.048149 -3.7893e-20)
        0.155             (0.928261 0.0486291 3.59171e-20)             (0.928261 -0.0486291 -3.70364e-20)
         0.16             (0.92762 0.0491079 3.51243e-20)             (0.92762 -0.0491079 -3.62186e-20)
        0.165             (0.926982 0.0495856 3.43712e-20)             (0.926982 -0.0495856 -3.54418e-20)
         0.17             (0.926347 0.0500623 3.36552e-20)             (0.926347 -0.0500623 -3.47032e-20)
        0.175             (0.925715 0.0505382 3.2973e-20)             (0.925715 -0.0505382 -3.39995e-20)
         0.18             (0.925086 0.0510135 3.23208e-20)             (0.925086 -0.0510135 -3.33267e-20)
        0.185             (0.92446 0.0514881 3.16978e-20)             (0.92446 -0.0514881 -3.26841e-20)
         0.19             (0.923835 0.0519623 3.11013e-20)             (0.923835 -0.0519623 -3.20688e-20)
        0.195             (0.923213 0.052436 3.05296e-20)             (0.923213 -0.052436 -3.14791e-20)
          0.2             (0.922593 0.0529095 2.99821e-20)             (0.922593 -0.0529095 -3.09142e-20)
        0.205             (0.921974 0.0533828 2.94541e-20)             (0.921974 -0.0533828 -3.03696e-20)
         0.21             (0.921357 0.053856 2.89483e-20)             (0.921357 -0.053856 -2.98478e-20)
        0.215             (0.920741 0.0543291 2.84621e-20)             (0.920741 -0.0543291 -2.93463e-20)
         0.22             (0.920127 0.0548022 2.79919e-20)             (0.920127 -0.0548022 -2.88613e-20)
        0.225             (0.919514 0.0552755 2.75399e-20)             (0.919514 -0.0552755 -2.8395e-20)
         0.23             (0.918902 0.055749 2.71031e-20)             (0.918902 -0.055749 -2.79444e-20)
        0.235             (0.91829 0.0562227 2.66833e-20)             (0.91829 -0.0562227 -2.75113e-20)
         0.24             (0.91768 0.0566967 2.62768e-20)             (0.91768 -0.0566967 -2.70919e-20)
        0.245             (0.91707 0.0571711 2.5884e-20)             (0.91707 -0.0571711 -2.66867e-20)
         0.25             (0.916461 0.057646 2.55029e-20)             (0.916461 -0.057646 -2.62935e-20)
        0.255             (0.915852 0.0581213 2.51366e-20)             (0.915852 -0.0581213 -2.59157e-20)
         0.26             (0.915244 0.0585973 2.4779e-20)             (0.915244 -0.0585973 -2.55468e-20)
        0.265             (0.914636 0.0590739 2.44337e-20)             (0.914636 -0.0590739 -2.51905e-20)
         0.27             (0.914028 0.0595512 2.4099e-20)             (0.914028 -0.0595512 -2.48452e-20)
        0.275             (0.91342 0.0600292 2.37743e-20)             (0.91342 -0.0600292 -2.45103e-20)
         0.28             (0.912813 0.0605081 2.34596e-20)             (0.912813 -0.0605081 -2.41856e-20)
        0.285             (0.912205 0.0609878 2.31523e-20)             (0.912205 -0.0609878 -2.38685e-20)
         0.29             (0.911598 0.0614684 2.28553e-20)             (0.911598 -0.0614684 -2.35621e-20)
        0.295             (0.91099 0.06195 2.25666e-20)             (0.91099 -0.06195 -2.32643e-20)
          0.3             (0.910383 0.0624327 2.22859e-20)             (0.910383 -0.0624327 -2.29747e-20)
        0.305             (0.909775 0.0629165 2.20128e-20)             (0.909775 -0.0629165 -2.26929e-20)
         0.31             (0.909167 0.0634014 2.17472e-20)             (0.909167 -0.0634014 -2.2419e-20)
        0.315             (0.908558 0.0638875 2.14886e-20)             (0.908558 -0.0638874 -2.21522e-20)
         0.32             (0.907949 0.0643748 2.1235e-20)             (0.907949 -0.0643748 -2.18905e-20)
        0.325             (0.90734 0.0648634 2.09939e-20)             (0.90734 -0.0648634 -2.16417e-20)
         0.33             (0.90673 0.0653534 2.07543e-20)             (0.90673 -0.0653534 -2.13945e-20)
        0.335             (0.90612 0.0658448 2.05218e-20)             (0.90612 -0.0658448 -2.11546e-20)
         0.34             (0.905509 0.0663377 2.02951e-20)             (0.905509 -0.0663377 -2.09207e-20)
        0.345             (0.904898 0.066832 2.00745e-20)             (0.904898 -0.066832 -2.06931e-20)
         0.35             (0.904286 0.0673279 1.98592e-20)             (0.904285 -0.0673279 -2.0471e-20)
        0.355             (0.903673 0.0678254 1.96495e-20)             (0.903673 -0.0678254 -2.02545e-20)
         0.36             (0.903059 0.0683245 1.9444e-20)             (0.903059 -0.0683244 -2.00426e-20)
        0.365             (0.902445 0.0688252 1.92442e-20)             (0.902445 -0.0688252 -1.98364e-20)
         0.37             (0.90183 0.0693277 1.90494e-20)             (0.90183 -0.0693277 -1.96354e-20)
        0.375             (0.901214 0.069832 1.8859e-20)             (0.901214 -0.069832 -1.94389e-20)
         0.38             (0.900597 0.070338 1.86744e-20)             (0.900597 -0.070338 -1.92484e-20)
        0.385             (0.899979 0.0708459 1.84924e-20)             (0.899979 -0.0708459 -1.90606e-20)
         0.39             (0.899361 0.0713557 1.83155e-20)             (0.899361 -0.0713556 -1.88781e-20)
        0.395             (0.898741 0.0718673 1.8143e-20)             (0.898741 -0.0718673 -1.87001e-20)
          0.4             (0.898121 0.0723809 1.79762e-20)             (0.898121 -0.0723809 -1.85279e-20)
        0.405             (0.897499 0.0728965 1.7809e-20)             (0.897499 -0.0728965 -1.83553e-20)
         0.41             (0.896876 0.0734141 1.76482e-20)             (0.896876 -0.0734141 -1.81894e-20)
        0.415             (0.896252 0.0739338 1.74913e-20)             (0.896252 -0.0739338 -1.80275e-20)
         0.42             (0.895627 0.0744555 1.73381e-20)             (0.895627 -0.0744555 -1.78694e-20)
        0.425             (0.895001 0.0749793 1.71875e-20)             (0.895001 -0.0749793 -1.7714e-20)
         0.43             (0.894374 0.0755052 1.70412e-20)             (0.894374 -0.0755052 -1.7563e-20)
        0.435             (0.893745 0.0760333 1.68982e-20)             (0.893745 -0.0760333 -1.74154e-20)
         0.44             (0.893115 0.0765635 1.67584e-20)             (0.893115 -0.0765635 -1.72711e-20)
        0.445             (0.892484 0.0770959 1.66218e-20)             (0.892484 -0.0770959 -1.71302e-20)
         0.45             (0.891852 0.0776306 1.64883e-20)             (0.891852 -0.0776305 -1.69924e-20)
        0.455             (0.891218 0.0781674 1.6358e-20)             (0.891218 -0.0781674 -1.68578e-20)
         0.46             (0.890583 0.0787065 1.6231e-20)             (0.890583 -0.0787065 -1.67268e-20)
        0.465             (0.889946 0.0792478 1.61058e-20)             (0.889946 -0.0792478 -1.65975e-20)
         0.47             (0.889308 0.0797914 1.59843e-20)             (0.889308 -0.0797914 -1.64721e-20)
        0.475             (0.888669 0.0803372 1.58653e-20)             (0.888669 -0.0803372 -1.63493e-20)
         0.48             (0.888028 0.0808853 1.57482e-20)             (0.888028 -0.0808853 -1.62284e-20)
        0.485             (0.887385 0.0814357 1.56377e-20)             (0.887385 -0.0814357 -1.61143e-20)
         0.49             (0.886742 0.0819884 1.55269e-20)             (0.886742 -0.0819884 -1.6e-20)
        0.495             (0.886096 0.0825434 1.54165e-20)             (0.886096 -0.0825434 -1.5886e-20)
          0.5             (0.885449 0.0831006 1.53142e-20)             (0.885449 -0.0831006 -1.57804e-20)
        0.505             (0.8848 0.0836602 1.52114e-20)             (0.8848 -0.0836602 -1.56743e-20)
         0.51             (0.88415 0.084222 1.51108e-20)             (0.88415 -0.084222 -1.55704e-20)
        0.515             (0.883498 0.0847861 1.50128e-20)             (0.883498 -0.084786 -1.54692e-20)
         0.52             (0.882844 0.0853524 1.49172e-20)             (0.882844 -0.0853524 -1.53705e-20)
        0.525             (0.882189 0.085921 1.48241e-20)             (0.882189 -0.085921 -1.52744e-20)
         0.53             (0.881532 0.0864918 1.47333e-20)             (0.881532 -0.0864918 -1.51806e-20)
        0.535             (0.880873 0.0870649 1.46447e-20)             (0.880873 -0.0870648 -1.50892e-20)
         0.54             (0.880213 0.0876401 1.45585e-20)             (0.880213 -0.0876401 -1.50001e-20)
        0.545             (0.87955 0.0882176 1.44744e-20)             (0.87955 -0.0882175 -1.49134e-20)
         0.55             (0.878886 0.0887972 1.43928e-20)             (0.878886 -0.0887972 -1.4829e-20)
        0.555             (0.87822 0.0893789 1.43128e-20)             (0.87822 -0.0893789 -1.47464e-20)
         0.56             (0.877552 0.0899628 1.42352e-20)             (0.877552 -0.0899628 -1.46663e-20)
        0.565             (0.876882 0.0905488 1.41599e-20)             (0.876882 -0.0905488 -1.45886e-20)
         0.57             (0.876211 0.0911368 1.40867e-20)             (0.876211 -0.0911368 -1.45129e-20)
        0.575             (0.875537 0.0917269 1.40153e-20)             (0.875537 -0.0917269 -1.44392e-20)
         0.58             (0.874861 0.092319 1.39461e-20)             (0.874861 -0.092319 -1.43677e-20)
        0.585             (0.874184 0.0929131 1.3879e-20)             (0.874184 -0.0929131 -1.42984e-20)
         0.59             (0.873504 0.0935091 1.38137e-20)             (0.873504 -0.0935091 -1.4231e-20)
        0.595             (0.872823 0.094107 1.37505e-20)             (0.872823 -0.094107 -1.41656e-20)
          0.6             (0.872139 0.0947068 1.36892e-20)             (0.872139 -0.0947068 -1.41024e-20)
        0.605             (0.871453 0.0953085 1.36303e-20)             (0.871453 -0.0953084 -1.40415e-20)
         0.61             (0.870765 0.0959119 1.35747e-20)             (0.870765 -0.0959119 -1.3984e-20)
        0.615             (0.870075 0.096517 1.3515e-20)             (0.870075 -0.096517 -1.39224e-20)
         0.62             (0.869383 0.0971238 1.34614e-20)             (0.869383 -0.0971238 -1.3867e-20)
        0.625             (0.868689 0.0977323 1.34097e-20)             (0.868689 -0.0977323 -1.38136e-20)
         0.63             (0.867993 0.0983424 1.33598e-20)             (0.867993 -0.0983424 -1.3762e-20)
        0.635             (0.867294 0.0989541 1.33116e-20)             (0.867294 -0.0989541 -1.37122e-20)
         0.64             (0.866594 0.0995672 1.32652e-20)             (0.866594 -0.0995672 -1.36642e-20)
        0.645             (0.865891 0.100182 1.32204e-20)             (0.865891 -0.100182 -1.36179e-20)
         0.65             (0.865185 0.100798 1.31781e-20)             (0.865185 -0.100798 -1.35741e-20)
        0.655             (0.864478 0.101415 1.31363e-20)             (0.864478 -0.101415 -1.35309e-20)
         0.66             (0.863768 0.102034 1.30969e-20)             (0.863768 -0.102034 -1.34901e-20)
        0.665             (0.863056 0.102654 1.3059e-20)             (0.863056 -0.102654 -1.34509e-20)
         0.67             (0.862342 0.103275 1.30212e-20)             (0.862342 -0.103275 -1.34118e-20)
        0.675             (0.861625 0.103897 1.299e-20)             (0.861625 -0.103897 -1.33796e-20)
         0.68             (0.860906 0.10452 1.2957e-20)             (0.860906 -0.10452 -1.33455e-20)
        0.685             (0.860185 0.105144 1.29262e-20)             (0.860185 -0.105144 -1.33136e-20)
         0.69             (0.859461 0.10577 1.28969e-20)             (0.859461 -0.10577 -1.32833e-20)
        0.695             (0.858735 0.106396 1.28691e-20)             (0.858735 -0.106396 -1.32545e-20)
          0.7             (0.858006 0.107023 1.28431e-20)             (0.858006 -0.107023 -1.32275e-20)
        0.705             (0.857275 0.10765 1.28187e-20)             (0.857275 -0.10765 -1.32023e-20)
         0.71             (0.856542 0.108278 1.27961e-20)             (0.856542 -0.108278 -1.31788e-20)
        0.715             (0.855806 0.108907 1.2775e-20)             (0.855806 -0.108907 -1.31569e-20)
         0.72             (0.855068 0.109537 1.27552e-20)             (0.855068 -0.109537 -1.31364e-20)
        0.725             (0.854327 0.110167 1.2738e-20)             (0.854327 -0.110167 -1.31186e-20)
         0.73             (0.853584 0.110797 1.27217e-20)             (0.853584 -0.110797 -1.31017e-20)
        0.735             (0.852838 0.111428 1.27071e-20)             (0.852838 -0.111428 -1.30865e-20)
         0.74             (0.85209 0.112059 1.2694e-20)             (0.85209 -0.112059 -1.30729e-20)
        0.745             (0.851339 0.11269 1.26826e-20)             (0.851339 -0.11269 -1.3061e-20)
         0.75             (0.850585 0.113321 1.26726e-20)             (0.850585 -0.113321 -1.30507e-20)
        0.755             (0.849829 0.113952 1.26643e-20)             (0.849829 -0.113952 -1.30419e-20)
         0.76             (0.849071 0.114584 1.26569e-20)             (0.849071 -0.114584 -1.30343e-20)
        0.765             (0.84831 0.115215 1.26522e-20)             (0.84831 -0.115215 -1.30293e-20)
         0.77             (0.847546 0.115846 1.26482e-20)             (0.847546 -0.115846 -1.3025e-20)
        0.775             (0.84678 0.116477 1.26455e-20)             (0.84678 -0.116477 -1.30221e-20)
         0.78             (0.846012 0.117108 1.26434e-20)             (0.846012 -0.117108 -1.30199e-20)
        0.785             (0.84524 0.117738 1.26476e-20)             (0.84524 -0.117738 -1.30241e-20)
         0.79             (0.844466 0.118368 1.26506e-20)             (0.844466 -0.118368 -1.30271e-20)
        0.795             (0.84369 0.118997 1.26545e-20)             (0.84369 -0.118997 -1.3031e-20)
          0.8             (0.842911 0.119626 1.26599e-20)             (0.842911 -0.119626 -1.30364e-20)
        0.805             (0.842129 0.120254 1.26664e-20)             (0.842129 -0.120254 -1.30431e-20)
         0.81             (0.841345 0.120881 1.26755e-20)             (0.841345 -0.120881 -1.30524e-20)
        0.815             (0.840558 0.121508 1.26856e-20)             (0.840558 -0.121508 -1.30626e-20)
         0.82             (0.839768 0.122134 1.2697e-20)             (0.839768 -0.122134 -1.30744e-20)
        0.825             (0.838976 0.122758 1.27098e-20)             (0.838976 -0.122758 -1.30874e-20)
         0.83             (0.838181 0.123382 1.27249e-20)             (0.838181 -0.123382 -1.31029e-20)
        0.835             (0.837383 0.124005 1.27403e-20)             (0.837383 -0.124005 -1.31187e-20)
         0.84             (0.836583 0.124627 1.27574e-20)             (0.836583 -0.124627 -1.31362e-20)
        0.845             (0.835781 0.125247 1.27765e-20)             (0.835781 -0.125247 -1.31558e-20)
         0.85             (0.834975 0.125866 1.27968e-20)             (0.834975 -0.125866 -1.31766e-20)
        0.855             (0.834167 0.126484 1.28192e-20)             (0.834167 -0.126484 -1.31997e-20)
         0.86             (0.833357 0.1271 1.28428e-20)             (0.833357 -0.1271 -1.32239e-20)
        0.865             (0.832543 0.127715 1.28678e-20)             (0.832543 -0.127715 -1.32495e-20)
         0.87             (0.831727 0.128328 1.28943e-20)             (0.831727 -0.128328 -1.32767e-20)
        0.875             (0.830909 0.12894 1.29221e-20)             (0.830909 -0.12894 -1.33053e-20)
         0.88             (0.830088 0.12955 1.2953e-20)             (0.830088 -0.12955 -1.33371e-20)
        0.885             (0.829264 0.130158 1.29848e-20)             (0.829264 -0.130158 -1.33698e-20)
         0.89             (0.828437 0.130764 1.30123e-20)             (0.828437 -0.130764 -1.33981e-20)
        0.895             (0.827608 0.131369 1.30463e-20)             (0.827608 -0.131369 -1.34331e-20)
          0.9             (0.826777 0.131971 1.3081e-20)             (0.826777 -0.131971 -1.34687e-20)
        0.905             (0.825942 0.132572 1.31184e-20)             (0.825942 -0.132572 -1.35072e-20)
         0.91             (0.825106 0.13317 1.31565e-20)             (0.825106 -0.13317 -1.35464e-20)
        0.915             (0.824266 0.133766 1.31959e-20)             (0.824266 -0.133766 -1.35869e-20)
         0.92             (0.823424 0.134361 1.32367e-20)             (0.823424 -0.134361 -1.36289e-20)
        0.925             (0.82258 0.134952 1.32788e-20)             (0.82258 -0.134952 -1.36723e-20)
         0.93             (0.821733 0.135542 1.3322e-20)             (0.821733 -0.135542 -1.37168e-20)
        0.935             (0.820883 0.136129 1.33677e-20)             (0.820883 -0.136129 -1.37638e-20)
         0.94             (0.820031 0.136713 1.34129e-20)             (0.820031 -0.136713 -1.38103e-20)
        0.945             (0.819176 0.137296 1.34624e-20)             (0.819176 -0.137296 -1.38613e-20)
         0.95             (0.818318 0.137875 1.35117e-20)             (0.818318 -0.137875 -1.3912e-20)
        0.955             (0.817459 0.138452 1.35628e-20)             (0.817459 -0.138452 -1.39646e-20)
         0.96             (0.816596 0.139026 1.36146e-20)             (0.816596 -0.139026 -1.40179e-20)
        0.965             (0.815731 0.139598 1.36679e-20)             (0.815731 -0.139598 -1.40728e-20)
         0.97             (0.814864 0.140167 1.37226e-20)             (0.814864 -0.140167 -1.41292e-20)
        0.975             (0.813994 0.140733 1.37788e-20)             (0.813994 -0.140733 -1.4187e-20)
         0.98             (0.813122 0.141296 1.38363e-20)             (0.813122 -0.141296 -1.42463e-20)
        0.985             (0.812247 0.141856 1.38949e-20)             (0.812247 -0.141856 -1.43066e-20)
         0.99             (0.81137 0.142413 1.39558e-20)             (0.81137 -0.142413 -1.43693e-20)
        0.995             (0.81049 0.142967 1.40176e-20)             (0.81049 -0.142967 -1.44329e-20)
            1             (0.809608 0.143518 1.40802e-20)             (0.809608 -0.143518 -1.44975e-20)
        1.005             (0.808724 0.144065 1.41453e-20)             (0.808724 -0.144065 -1.45645e-20)
         1.01             (0.807837 0.14461 1.42111e-20)             (0.807837 -0.14461 -1.46323e-20)
        1.015             (0.806948 0.145151 1.42783e-20)             (0.806948 -0.145151 -1.47014e-20)
         1.02             (0.806057 0.145689 1.43467e-20)             (0.806057 -0.145689 -1.4772e-20)
        1.025             (0.805163 0.146224 1.44167e-20)             (0.805163 -0.146224 -1.4844e-20)
         1.03             (0.804267 0.146756 1.44879e-20)             (0.804267 -0.146756 -1.49174e-20)
        1.035             (0.803368 0.147284 1.45604e-20)             (0.803368 -0.147284 -1.49921e-20)
         1.04             (0.802468 0.147808 1.46343e-20)             (0.802468 -0.147808 -1.50682e-20)
        1.045             (0.801565 0.148329 1.47094e-20)             (0.801565 -0.148329 -1.51456e-20)
         1.05             (0.80066 0.148846 1.47856e-20)             (0.80066 -0.148846 -1.5224e-20)
        1.055             (0.799752 0.14936 1.48644e-20)             (0.799752 -0.14936 -1.53053e-20)
         1.06             (0.798843 0.149871 1.49437e-20)             (0.798843 -0.149871 -1.5387e-20)
        1.065             (0.797931 0.150377 1.50242e-20)             (0.797931 -0.150377 -1.54699e-20)
         1.07             (0.797017 0.15088 1.5106e-20)             (0.797017 -0.15088 -1.55542e-20)
        1.075             (0.796101 0.151379 1.51891e-20)             (0.796101 -0.151379 -1.56399e-20)
         1.08             (0.795183 0.151875 1.52736e-20)             (0.795183 -0.151875 -1.57269e-20)
        1.085             (0.794262 0.152366 1.53594e-20)             (0.794262 -0.152366 -1.58153e-20)
         1.09             (0.79334 0.152854 1.54465e-20)             (0.79334 -0.152854 -1.5905e-20)
        1.095             (0.792415 0.153338 1.55348e-20)             (0.792415 -0.153338 -1.59961e-20)
          1.1             (0.791489 0.153818 1.56244e-20)             (0.791489 -0.153818 -1.60884e-20)
        1.105             (0.79056 0.154294 1.57149e-20)             (0.79056 -0.154294 -1.61817e-20)
         1.11             (0.78963 0.154766 1.58077e-20)             (0.78963 -0.154766 -1.62773e-20)
        1.115             (0.788697 0.155235 1.59008e-20)             (0.788697 -0.155235 -1.63732e-20)
         1.12             (0.787763 0.155699 1.59963e-20)             (0.787763 -0.155699 -1.64716e-20)
        1.125             (0.786827 0.156159 1.60923e-20)             (0.786827 -0.156159 -1.65705e-20)
         1.13             (0.785888 0.156615 1.61894e-20)             (0.785888 -0.156615 -1.66707e-20)
        1.135             (0.784948 0.157067 1.62879e-20)             (0.784948 -0.157067 -1.67722e-20)
         1.14             (0.784006 0.157515 1.63876e-20)             (0.784006 -0.157515 -1.6875e-20)
        1.145             (0.783063 0.157959 1.64886e-20)             (0.783063 -0.157959 -1.6979e-20)
         1.15             (0.782117 0.158399 1.65908e-20)             (0.782117 -0.158399 -1.70844e-20)
        1.155             (0.78117 0.158834 1.66942e-20)             (0.78117 -0.158834 -1.71909e-20)
         1.16             (0.78022 0.159265 1.67988e-20)             (0.78022 -0.159265 -1.72988e-20)
        1.165             (0.77927 0.159692 1.69048e-20)             (0.77927 -0.159692 -1.7408e-20)
         1.17             (0.778317 0.160115 1.70117e-20)             (0.778317 -0.160115 -1.75182e-20)
        1.175             (0.777363 0.160534 1.71193e-20)             (0.777363 -0.160534 -1.76291e-20)
         1.18             (0.776407 0.160948 1.72279e-20)             (0.776407 -0.160948 -1.7741e-20)
        1.185             (0.775449 0.161358 1.73397e-20)             (0.775449 -0.161358 -1.78563e-20)
         1.19             (0.77449 0.161764 1.74547e-20)             (0.77449 -0.161764 -1.79748e-20)
        1.195             (0.773529 0.162165 1.75677e-20)             (0.773529 -0.162165 -1.80913e-20)
          1.2             (0.772567 0.162562 1.76817e-20)             (0.772567 -0.162562 -1.82088e-20)
        1.205             (0.771603 0.162955 1.77969e-20)             (0.771603 -0.162955 -1.83276e-20)
         1.21             (0.770638 0.163343 1.79132e-20)             (0.770638 -0.163343 -1.84474e-20)
        1.215             (0.769671 0.163727 1.80312e-20)             (0.769671 -0.163727 -1.85691e-20)
         1.22             (0.768703 0.164107 1.81502e-20)             (0.768703 -0.164107 -1.86917e-20)
        1.225             (0.767733 0.164482 1.82702e-20)             (0.767733 -0.164482 -1.88155e-20)
         1.23             (0.766762 0.164853 1.83914e-20)             (0.766762 -0.164853 -1.89404e-20)
        1.235             (0.76579 0.16522 1.85138e-20)             (0.76579 -0.16522 -1.90666e-20)
         1.24             (0.764816 0.165582 1.86373e-20)             (0.764816 -0.165582 -1.91939e-20)
        1.245             (0.763841 0.165939 1.87619e-20)             (0.763841 -0.165939 -1.93224e-20)
         1.25             (0.762865 0.166293 1.88876e-20)             (0.762865 -0.166293 -1.9452e-20)
        1.255             (0.761887 0.166641 1.90141e-20)             (0.761887 -0.166641 -1.95823e-20)
         1.26             (0.760908 0.166986 1.91427e-20)             (0.760908 -0.166986 -1.97149e-20)
        1.265             (0.759928 0.167326 1.92719e-20)             (0.759928 -0.167326 -1.98481e-20)
         1.27             (0.758947 0.167661 1.94025e-20)             (0.758947 -0.167661 -1.99827e-20)
        1.275             (0.757965 0.167992 1.95337e-20)             (0.757965 -0.167992 -2.0118e-20)
         1.28             (0.756981 0.168319 1.9666e-20)             (0.756981 -0.168319 -2.02544e-20)
        1.285             (0.755997 0.168641 1.97994e-20)             (0.755997 -0.168641 -2.0392e-20)
         1.29             (0.755011 0.168958 1.99341e-20)             (0.755011 -0.168958 -2.05308e-20)
        1.295             (0.754024 0.169272 2.00702e-20)             (0.754024 -0.169272 -2.06711e-20)
          1.3             (0.753037 0.16958 2.02086e-20)             (0.753037 -0.16958 -2.08138e-20)
        1.305             (0.752048 0.169885 2.03425e-20)             (0.752048 -0.169885 -2.09518e-20)
         1.31             (0.751059 0.170185 2.04801e-20)             (0.751059 -0.170185 -2.10937e-20)
        1.315             (0.750068 0.17048 2.062e-20)             (0.750068 -0.17048 -2.1238e-20)
         1.32             (0.749077 0.170771 2.07612e-20)             (0.749077 -0.170771 -2.13835e-20)
        1.325             (0.748084 0.171057 2.09031e-20)             (0.748084 -0.171058 -2.15299e-20)
         1.33             (0.747091 0.17134 2.10458e-20)             (0.747091 -0.17134 -2.1677e-20)
        1.335             (0.746097 0.171617 2.11892e-20)             (0.746097 -0.171617 -2.18249e-20)
         1.34             (0.745103 0.17189 2.13345e-20)             (0.745103 -0.17189 -2.19746e-20)
        1.345             (0.744107 0.172159 2.14808e-20)             (0.744107 -0.172159 -2.21255e-20)
         1.35             (0.743111 0.172424 2.16274e-20)             (0.743111 -0.172424 -2.22767e-20)
        1.355             (0.742114 0.172684 2.17749e-20)             (0.742114 -0.172684 -2.24288e-20)
         1.36             (0.741116 0.172939 2.19234e-20)             (0.741116 -0.172939 -2.25819e-20)
        1.365             (0.740118 0.17319 2.20729e-20)             (0.740118 -0.17319 -2.27359e-20)
         1.37             (0.739119 0.173437 2.22231e-20)             (0.739119 -0.173437 -2.28908e-20)
        1.375             (0.73812 0.17368 2.23746e-20)             (0.73812 -0.17368 -2.3047e-20)
         1.38             (0.73712 0.173918 2.25262e-20)             (0.73712 -0.173918 -2.32033e-20)
        1.385             (0.736119 0.174151 2.26814e-20)             (0.736119 -0.174151 -2.33634e-20)
         1.39             (0.735118 0.174381 2.28355e-20)             (0.735118 -0.174381 -2.35222e-20)
        1.395             (0.734117 0.174606 2.29904e-20)             (0.734117 -0.174606 -2.3682e-20)
          1.4             (0.733115 0.174826 2.31463e-20)             (0.733115 -0.174826 -2.38427e-20)
        1.405             (0.732112 0.175042 2.33032e-20)             (0.732112 -0.175043 -2.40046e-20)
         1.41             (0.73111 0.175255 2.34602e-20)             (0.73111 -0.175255 -2.41664e-20)
        1.415             (0.730106 0.175462 2.36192e-20)             (0.730106 -0.175462 -2.43303e-20)
         1.42             (0.729103 0.175666 2.37787e-20)             (0.729103 -0.175666 -2.44948e-20)
        1.425             (0.728099 0.175865 2.39391e-20)             (0.728099 -0.175865 -2.46602e-20)
         1.43             (0.727095 0.17606 2.41004e-20)             (0.727095 -0.17606 -2.48265e-20)
        1.435             (0.726091 0.17625 2.4263e-20)             (0.726091 -0.17625 -2.49942e-20)