/*--------------------------------*- C++ -*----------------------------------*\
  =========                 |
  \\      /  F ield         | OpenFOAM: The Open Source CFD Toolbox
   \\    /   O peration     | Website:  https://openfoam.org
    \\  /    A nd           | Version:  7
     \\/     M anipulation  |
\*---------------------------------------------------------------------------*/
FoamFile
{
    version     2.0;
    format      ascii;
    class       volScalarField;
    location    "20";
    object      p;
}
// * * * * * * * * * * * * * * * * * * * * * * * * * * * * * * * * * * * * * //

dimensions      [0 2 -2 0 0 0 0];

internalField   nonuniform List<scalar> 
6050
(
-0.317799
-0.318352
-0.318617
-0.318576
-0.31821
-0.317497
-0.316411
-0.314906
-0.312928
-0.310461
-0.307355
-0.303718
-0.299198
-0.317969
-0.318524
-0.318791
-0.318756
-0.318398
-0.317697
-0.316627
-0.315145
-0.313181
-0.31076
-0.307609
-0.30404
-0.299151
-0.318295
-0.318849
-0.31912
-0.319092
-0.318747
-0.318064
-0.317019
-0.315577
-0.31362
-0.311308
-0.308012
-0.30469
-0.29901
-0.318748
-0.319295
-0.319565
-0.319541
-0.319206
-0.318538
-0.317514
-0.316123
-0.314122
-0.312039
-0.308353
-0.305657
-0.298725
-0.319286
-0.319816
-0.320075
-0.320045
-0.319709
-0.319045
-0.318017
-0.316699
-0.314532
-0.312882
-0.308386
-0.306806
-0.298472
-0.320361
-0.320592
-0.320539
-0.320184
-0.319505
-0.318432
-0.31722
-0.314747
-0.313499
-0.308477
-0.307322
-0.298336
-0.320873
-0.321056
-0.320959
-0.320559
-0.319844
-0.31869
-0.317509
-0.314762
-0.313811
-0.30813
-0.307413
-0.298086
-0.321299
-0.321411
-0.321245
-0.320771
-0.319987
-0.31871
-0.31752
-0.314433
-0.313632
-0.307419
-0.306667
-0.297582
-0.321592
-0.321606
-0.321344
-0.320767
-0.319868
-0.318421
-0.317108
-0.313745
-0.312651
-0.306355
-0.304787
-0.296387
-0.321711
-0.321599
-0.32121
-0.320483
-0.319412
-0.317753
-0.316123
-0.312604
-0.310681
-0.304684
-0.301744
-0.293954
-0.321627
-0.321357
-0.320799
-0.319865
-0.318541
-0.316584
-0.314444
-0.310753
-0.307718
-0.301992
-0.297627
-0.29008
-0.32085
-0.320065
-0.318838
-0.317154
-0.314754
-0.311968
-0.307902
-0.303801
-0.298027
-0.292511
-0.284837
-0.320045
-0.318947
-0.31731
-0.315122
-0.312107
-0.308578
-0.303905
-0.298938
-0.292829
-0.286543
-0.278618
-0.318899
-0.317365
-0.315174
-0.312308
-0.308541
-0.304194
-0.298815
-0.293189
-0.286664
-0.279978
-0.2719
-0.31735
-0.315222
-0.312321
-0.308619
-0.304031
-0.298851
-0.292828
-0.286729
-0.279882
-0.273112
-0.264999
-0.312432
-0.308679
-0.304051
-0.29865
-0.292706
-0.286198
-0.279779
-0.272771
-0.266154
-0.258086
-0.308938
-0.30424
-0.298694
-0.292556
-0.285985
-0.279166
-0.272512
-0.265502
-0.25917
-0.251213
-0.299079
-0.2927
-0.285944
-0.278907
-0.271905
-0.265049
-0.258152
-0.252053
-0.244324
-0.293324
-0.286242
-0.278995
-0.271641
-0.264521
-0.257497
-0.250748
-0.244581
-0.237282
-0.279472
-0.271851
-0.264294
-0.25708
-0.249962
-0.243313
-0.236721
-0.229961
-0.272507
-0.264606
-0.256916
-0.249629
-0.242499
-0.235873
-0.22901
-0.222421
-0.257313
-0.249531
-0.242198
-0.235085
-0.228418
-0.22168
-0.2154
-0.249996
-0.242149
-0.234793
-0.227701
-0.221097
-0.214492
-0.208493
-0.234769
-0.227401
-0.220367
-0.213839
-0.207388
-0.20174
-0.220017
-0.213052
-0.20663
-0.200379
-0.194971
-0.205741
-0.199436
-0.193365
-0.188192
-0.192222
-0.18634
-0.181361
-0.179263
-0.174464
-0.179263
-0.174464
-0.192222
-0.18634
-0.181361
-0.205741
-0.199436
-0.193365
-0.188192
-0.220017
-0.213052
-0.20663
-0.200379
-0.194971
-0.234768
-0.227401
-0.220367
-0.213839
-0.207388
-0.201739
-0.249996
-0.242149
-0.234792
-0.2277
-0.221096
-0.214492
-0.208493
-0.257313
-0.249531
-0.242197
-0.235085
-0.228418
-0.22168
-0.2154
-0.272506
-0.264605
-0.256915
-0.249628
-0.242498
-0.235873
-0.229009
-0.22242
-0.279471
-0.27185
-0.264293
-0.25708
-0.249962
-0.243312
-0.236721
-0.229961
-0.293324
-0.286241
-0.278994
-0.271641
-0.26452
-0.257496
-0.250748
-0.244581
-0.237282
-0.299078
-0.292699
-0.285943
-0.278906
-0.271904
-0.265048
-0.258152
-0.252052
-0.244324
-0.308937
-0.304239
-0.298693
-0.292555
-0.285984
-0.279165
-0.272511
-0.265501
-0.259169
-0.251213
-0.312431
-0.308678
-0.30405
-0.298649
-0.292705
-0.286197
-0.279778
-0.27277
-0.266153
-0.258086
-0.31735
-0.315222
-0.31232
-0.308618
-0.30403
-0.298849
-0.292826
-0.286728
-0.279882
-0.273111
-0.264999
-0.318898
-0.317364
-0.315172
-0.312307
-0.308539
-0.304193
-0.298814
-0.293188
-0.286664
-0.279978
-0.271899
-0.320044
-0.318946
-0.317309
-0.315121
-0.312105
-0.308577
-0.303904
-0.298936
-0.292828
-0.286542
-0.278618
-0.320849
-0.320064
-0.318837
-0.317152
-0.314752
-0.311966
-0.3079
-0.303799
-0.298026
-0.29251
-0.284837
-0.321626
-0.321357
-0.320798
-0.319863
-0.318539
-0.316583
-0.314443
-0.310751
-0.307717
-0.30199
-0.297626
-0.29008
-0.32171
-0.321598
-0.321209
-0.320481
-0.319411
-0.317751
-0.316121
-0.312602
-0.31068
-0.304682
-0.301743
-0.293953
-0.321591
-0.321605
-0.321343
-0.320766
-0.319866
-0.318419
-0.317107
-0.313743
-0.312649
-0.306354
-0.304786
-0.296387
-0.321299
-0.32141
-0.321244
-0.32077
-0.319986
-0.318708
-0.317518
-0.314431
-0.313631
-0.307418
-0.306666
-0.297582
-0.320872
-0.321055
-0.320958
-0.320558
-0.319842
-0.318689
-0.317508
-0.314761
-0.31381
-0.308129
-0.307412
-0.298085
-0.32036
-0.320591
-0.320538
-0.320183
-0.319504
-0.318431
-0.317218
-0.314746
-0.313498
-0.308476
-0.307321
-0.298335
-0.319286
-0.319816
-0.320074
-0.320044
-0.319708
-0.319044
-0.318016
-0.316697
-0.31453
-0.312881
-0.308385
-0.306805
-0.298471
-0.318747
-0.319295
-0.319564
-0.31954
-0.319206
-0.318538
-0.317513
-0.316122
-0.314121
-0.312038
-0.308352
-0.305656
-0.298725
-0.318295
-0.318849
-0.31912
-0.319092
-0.318747
-0.318064
-0.317019
-0.315576
-0.313619
-0.311307
-0.308012
-0.30469
-0.29901
-0.317969
-0.318524
-0.318791
-0.318756
-0.318398
-0.317697
-0.316627
-0.315144
-0.31318
-0.310759
-0.307608
-0.304039
-0.29915
-0.317799
-0.318352
-0.318617
-0.318576
-0.31821
-0.317497
-0.31641
-0.314905
-0.312928
-0.310461
-0.307355
-0.303718
-0.299198
-0.296094
-0.293457
-0.290633
-0.287559
-0.284212
-0.280545
-0.276504
-0.272024
-0.267033
-0.261451
-0.255196
-0.248179
-0.240313
-0.231517
-0.221726
-0.210897
-0.199021
-0.186132
-0.172303
-0.157672
-0.142416
-0.126778
-0.11103
-0.0954766
-0.0804252
-0.0661597
-0.0529424
-0.0409841
-0.0304267
-0.0213454
-0.0137491
-0.00757534
-0.00273234
0.000938638
0.00357296
0.00536812
0.00645164
0.00701583
0.00714468
0.00701359
0.00663524
0.00618708
0.00558407
0.00504454
0.00435094
0.0038252
0.00305061
0.00255114
0.00157634
0.000982067
-0.296364
-0.293733
-0.290918
-0.287877
-0.284564
-0.280934
-0.276933
-0.272497
-0.267554
-0.262024
-0.255823
-0.248862
-0.241051
-0.232308
-0.222566
-0.211779
-0.199933
-0.187067
-0.173269
-0.158637
-0.143369
-0.127705
-0.11191
-0.096326
-0.0812276
-0.0669117
-0.0536409
-0.0416279
-0.0310161
-0.0218814
-0.0142338
-0.00801128
-0.00312229
0.000591639
0.00326624
0.00509809
0.00621604
0.00681067
0.00696797
0.00686111
0.00650547
0.00607599
0.00549113
0.00496542
0.0042866
0.00377043
0.00300898
0.00251507
0.0015556
0.000961149
-0.29677
-0.294168
-0.291411
-0.28842
-0.285157
-0.281586
-0.277654
-0.273297
-0.268442
-0.263006
-0.256904
-0.250043
-0.242334
-0.23369
-0.224042
-0.21334
-0.201566
-0.188767
-0.174953
-0.160351
-0.145077
-0.129393
-0.113569
-0.097918
-0.0827473
-0.0683512
-0.0549921
-0.042886
-0.0321788
-0.0229482
-0.0152061
-0.00889102
-0.00391298
-0.000114213
0.00264096
0.00454716
0.00573514
0.00639221
0.00660786
0.00655107
0.00624204
0.00585102
0.0053033
0.00480596
0.00415723
0.00366064
0.00292578
0.00244333
0.00151447
0.000920471
-0.297645
-0.294809
-0.291987
-0.289035
-0.285832
-0.282332
-0.278484
-0.274223
-0.269475
-0.264131
-0.258155
-0.251422
-0.243842
-0.235327
-0.225804
-0.215218
-0.203548
-0.19082
-0.177119
-0.162555
-0.147308
-0.131622
-0.115778
-0.100084
-0.08485
-0.0703751
-0.0569224
-0.0447104
-0.0338883
-0.0245353
-0.0166672
-0.0102238
-0.00511821
-0.00119484
0.00168097
0.00370025
0.00499544
0.00574918
0.0060549
0.00607626
0.00583951
0.00550835
0.00501792
0.00456461
0.003962
0.00349575
0.00280134
0.00233682
0.0014536
0.00086235
-0.29805
-0.29542
-0.292486
-0.289537
-0.286398
-0.282968
-0.279196
-0.275022
-0.270373
-0.265164
-0.259309
-0.252709
-0.245271
-0.236904
-0.227531
-0.217095
-0.205573
-0.192981
-0.179386
-0.164924
-0.149764
-0.13414
-0.11833
-0.102644
-0.0873898
-0.0728695
-0.0593469
-0.0470414
-0.0361054
-0.0266206
-0.0186072
-0.0120087
-0.00674244
-0.00265794
0.000377317
0.00254835
0.00398856
0.00487437
0.00530313
0.0054321
0.00529458
0.00504591
0.00463373
0.00424104
0.00370098
0.00327657
0.00263652
0.00219723
0.00137392
0.000790145
-0.298043
-0.295847
-0.292841
-0.289821
-0.286711
-0.283339
-0.279628
-0.275528
-0.270966
-0.265857
-0.260115
-0.253644
-0.24635
-0.238139
-0.228933
-0.218674
-0.207334
-0.194927
-0.181514
-0.167224
-0.152224
-0.136739
-0.121043
-0.105438
-0.0902316
-0.0757228
-0.0621753
-0.0498076
-0.0387752
-0.0291623
-0.0209951
-0.0142229
-0.00876919
-0.0044916
-0.00126141
0.00109782
0.00271923
0.00377156
0.00435561
0.00462118
0.00460949
0.00446607
0.00415283
0.00383751
0.00337614
0.00300544
0.00243319
0.00202724
0.00127673
0.000707932
-0.297417
-0.295593
-0.292738
-0.289703
-0.286594
-0.283251
-0.279583
-0.275539
-0.271051
-0.266029
-0.260387
-0.254035
-0.246878
-0.238827
-0.229802
-0.219745
-0.208629
-0.196462
-0.183301
-0.169263
-0.154509
-0.139257
-0.123767
-0.108333
-0.093255
-0.0788278
-0.0653125
-0.0529254
-0.0418239
-0.032096
-0.0237746
-0.0168176
-0.0111564
-0.00665986
-0.0032048
-0.000625707
0.00120878
0.00245849
0.00322681
0.00365561
0.00379388
0.00377694
0.00358175
0.00335972
0.00299196
0.0026866
0.00219439
0.00183048
0.00116371
0.000619962
-0.296011
-0.29432
-0.291789
-0.288906
-0.285826
-0.282487
-0.278845
-0.274857
-0.270441
-0.265499
-0.259949
-0.253711
-0.246698
-0.238819
-0.229995
-0.220171
-0.209318
-0.197446
-0.184608
-0.170908
-0.156497
-0.141577
-0.126392
-0.111221
-0.0963554
-0.082083
-0.0686606
-0.0563008
-0.0451624
-0.0353379
-0.0268681
-0.0197221
-0.0138405
-0.00910638
-0.00540378
-0.00258004
-0.000507033
0.00096514
0.00194156
0.00255578
0.00286433
0.00299199
0.00293124
0.00281659
0.00255532
0.00232605
0.00192435
0.00161139
0.00103699
0.000530085
-0.293703
-0.291775
-0.289636
-0.287104
-0.284141
-0.280807
-0.277193
-0.273282
-0.268958
-0.264108
-0.25866
-0.252552
-0.2457
-0.238017
-0.229427
-0.219877
-0.20934
-0.197822
-0.185371
-0.172086
-0.158111
-0.143622
-0.128837
-0.114019
-0.0994453
-0.0853966
-0.0721245
-0.0598373
-0.0486946
-0.0387946
-0.0301866
-0.0228531
-0.0167456
-0.0117631
-0.00779839
-0.00471319
-0.00238382
-0.00067103
0.000531058
0.00134744
0.0018418
0.00212836
0.00221483
0.00221916
0.00207479
0.00193097
0.00162817
0.00137477
0.000899023
0.000441311
-0.290023
-0.287674
-0.286039
-0.284058
-0.281318
-0.278026
-0.274477
-0.270691
-0.2665
-0.261772
-0.256457
-0.250512
-0.243859
-0.23641
-0.228097
-0.21887
-0.208703
-0.1976
-0.185604
-0.172804
-0.159333
-0.145357
-0.131059
-0.116672
-0.102458
-0.0886917
-0.0756187
-0.0634439
-0.052327
-0.0423731
-0.0336404
-0.0261263
-0.0197941
-0.0145599
-0.0103267
-0.00697118
-0.00437526
-0.00241077
-0.0009718
5.79005e-05
0.000748627
0.00120435
0.00144722
0.00157928
0.00155957
0.00150893
0.0013113
0.00112535
0.000752423
0.000355626
-0.285039
-0.281901
-0.280887
-0.279636
-0.277234
-0.274078
-0.27069
-0.267104
-0.263097
-0.258536
-0.253403
-0.247669
-0.241259
-0.234091
-0.226103
-0.217249
-0.207505
-0.196871
-0.185384
-0.173123
-0.160209
-0.146796
-0.133046
-0.119151
-0.10535
-0.09191
-0.0790738
-0.0670434
-0.0559784
-0.0459912
-0.0371492
-0.0294655
-0.0229154
-0.017433
-0.012932
-0.00930447
-0.00643862
-0.00421769
-0.00253637
-0.00128723
-0.00039404
0.000237311
0.000642478
0.000908408
0.00101854
0.0010671
0.000978986
0.00086739
0.000599732
0.000274056
-0.278615
-0.275368
-0.274714
-0.274045
-0.271996
-0.269088
-0.26599
-0.262693
-0.258925
-0.254583
-0.249685
-0.244215
-0.238095
-0.231251
-0.223629
-0.21519
-0.205907
-0.195779
-0.184836
-0.173148
-0.160819
-0.147992
-0.134818
-0.12145
-0.108097
-0.0950131
-0.0824395
-0.0705769
-0.0595849
-0.0495834
-0.0406485
-0.0328088
-0.026052
-0.0203301
-0.0155675
-0.0116719
-0.00853822
-0.0060612
-0.0041367
-0.00266611
-0.00156803
-0.000757719
-0.000187134
0.000216577
0.000459695
0.000611847
0.000635905
0.000604418
0.000443214
0.000196868
-0.271225
-0.267829
-0.268145
-0.267925
-0.266039
-0.263413
-0.260702
-0.257758
-0.254273
-0.250196
-0.245581
-0.240412
-0.234615
-0.228125
-0.220898
-0.212896
-0.204093
-0.194487
-0.184101
-0.172993
-0.161256
-0.149015
-0.136414
-0.123582
-0.110692
-0.0979802
-0.0856845
-0.0740051
-0.0631024
-0.0531031
-0.0440916
-0.0361111
-0.0291616
-0.023212
-0.0181979
-0.0140421
-0.0106466
-0.00791756
-0.00575248
-0.00406151
-0.00275885
-0.00176866
-0.00103164
-0.000488028
-0.000110419
0.000148451
0.000286005
0.000339146
0.000284718
0.000123815
-0.263769
-0.260406
-0.261361
-0.261619
-0.259703
-0.257365
-0.255083
-0.252536
-0.249381
-0.245619
-0.241329
-0.236491
-0.231038
-0.224921
-0.218102
-0.210545
-0.202224
-0.193135
-0.183297
-0.172758
-0.161597
-0.149926
-0.137877
-0.125569
-0.113139
-0.100804
-0.0887931
-0.077306
-0.0665045
-0.0565214
-0.0474485
-0.0393428
-0.0322156
-0.0260521
-0.0207988
-0.0163932
-0.0127443
-0.00976969
-0.0073689
-0.00546072
-0.0039557
-0.00278639
-0.00188345
-0.00119912
-0.000686721
-0.000319068
-6.76097e-05
7.3574e-05
0.00012566
5.43532e-05
-0.256544
-0.253346
-0.254805
-0.255457
-0.253943
-0.251492
-0.249489
-0.247314
-0.244502
-0.241083
-0.237137
-0.23264
-0.227539
-0.221799
-0.215386
-0.208265
-0.200412
-0.191823
-0.18251
-0.172514
-0.161902
-0.150772
-0.139245
-0.127434
-0.11545
-0.103487
-0.0917609
-0.0804707
-0.0697787
-0.0598234
-0.0507031
-0.042487
-0.0351973
-0.0288343
-0.0233551
-0.018711
-0.0148186
-0.0116062
-0.00897592
-0.00685498
-0.00515097
-0.00380445
-0.00273708
-0.00191209
-0.00126544
-0.000787743
-0.00042263
-0.000190955
-3.29094e-05
-1.2175e-05
-0.249679
-0.246785
-0.248516
-0.249156
-0.247781
-0.245904
-0.244163
-0.242205
-0.239703
-0.236648
-0.233062
-0.228916
-0.224177
-0.218818
-0.212807
-0.206112
-0.198712
-0.1906
-0.181786
-0.172302
-0.162207
-0.151585
-0.140546
-0.129199
-0.117641
-0.106037
-0.0945926
-0.0835001
-0.0729232
-0.0630049
-0.0538493
-0.0455364
-0.0380986
-0.0315501
-0.0258581
-0.0209873
-0.0168615
-0.0134197
-0.0105668
-0.00823828
-0.00633936
-0.00481822
-0.00358854
-0.00262361
-0.0018438
-0.00125541
-0.00077736
-0.000453589
-0.000190279
-7.64058e-05
-0.243209
-0.240765
-0.242622
-0.243234
-0.242224
-0.240833
-0.23919
-0.237406
-0.235197
-0.232482
-0.229238
-0.225433
-0.221043
-0.21605
-0.210424
-0.204135
-0.197164
-0.189502
-0.181155
-0.172149
-0.162535
-0.152386
-0.1418
-0.130883
-0.119722
-0.108463
-0.097291
-0.0863945
-0.0759359
-0.0660619
-0.0568816
-0.0484846
-0.0409124
-0.0341921
-0.0283007
-0.0232153
-0.0188668
-0.0152046
-0.0121366
-0.00960623
-0.00751704
-0.00582444
-0.0044351
-0.00333138
-0.00241994
-0.00172067
-0.00113071
-0.000713893
-0.000346086
-0.000138935
-0.237184
-0.23534
-0.237067
-0.237423
-0.236607
-0.235601
-0.234304
-0.232691
-0.230731
-0.228357
-0.225479
-0.222037
-0.218015
-0.213398
-0.208159
-0.202272
-0.195718
-0.188487
-0.180585
-0.172031
-0.162869
-0.153163
-0.143
-0.132483
-0.121695
-0.110764
-0.0998584
-0.0891566
-0.0788199
-0.0689981
-0.059804
-0.0513357
-0.043643
-0.0367646
-0.0306868
-0.0253985
-0.0208375
-0.0169634
-0.0136872
-0.0109604
-0.0086851
-0.00682379
-0.00527716
-0.00403553
-0.00299385
-0.00218338
-0.0014826
-0.000971967
-0.000500501
-0.000200485
-0.231659
-0.230534
-0.231845
-0.232046
-0.231743
-0.231325
-0.23036
-0.228693
-0.226855
-0.224748
-0.22217
-0.219043
-0.215354
-0.211085
-0.206207
-0.200695
-0.194532
-0.187706
-0.180219
-0.172088
-0.163346
-0.154052
-0.14428
-0.134128
-0.123686
-0.113065
-0.102412
-0.0918969
-0.081677
-0.0719046
-0.0626964
-0.0541581
-0.0463474
-0.0393141
-0.0330534
-0.0275653
-0.0227952
-0.0187118
-0.0152297
-0.012308
-0.00984822
-0.00781889
-0.006116
-0.0047364
-0.00356542
-0.0026431
-0.00183259
-0.00122744
-0.000653369
-0.000261865
-0.226793
-0.22627
-0.226544
-0.226351
-0.226255
-0.225992
-0.225285
-0.224066
-0.222587
-0.22075
-0.218504
-0.215746
-0.212431
-0.208538
-0.204042
-0.19892
-0.193153
-0.186731
-0.179652
-0.17193
-0.163593
-0.154692
-0.145291
-0.13548
-0.125351
-0.115019
-0.104614
-0.0942903
-0.0842011
-0.0744981
-0.0653005
-0.0567198
-0.0488208
-0.0416623
-0.0352477
-0.0295873
-0.0246327
-0.020362
-0.0166931
-0.0135927
-0.0109616
-0.00877535
-0.00692479
-0.00541428
-0.00411956
-0.00308974
-0.00217306
-0.00147644
-0.000801173
-0.000322983
-0.22354
-0.224183
-0.223588
-0.223463
-0.223516
-0.223359
-0.222903
-0.221978
-0.220224
-0.218446
-0.216311
-0.213676
-0.210503
-0.206765
-0.202434
-0.197487
-0.191904
-0.185676
-0.178799
-0.171287
-0.163167
-0.154485
-0.145303
-0.135707
-0.125787
-0.115653
-0.105428
-0.0952641
-0.0853058
-0.075703
-0.0665715
-0.0580252
-0.0501282
-0.0429453
-0.0364809
-0.0307538
-0.0257161
-0.0213558
-0.0175889
-0.014393
-0.0116635
-0.0093873
-0.00744682
-0.00585687
-0.00448312
-0.00338595
-0.00239873
-0.00164417
-0.000897668
-0.000364537
-0.220939
-0.222021
-0.221348
-0.221291
-0.221401
-0.221252
-0.220745
-0.219709
-0.218255
-0.216565
-0.214495
-0.21193
-0.208834
-0.205178
-0.200937
-0.196087
-0.190608
-0.184492
-0.177737
-0.170356
-0.162374
-0.153837
-0.144805
-0.135361
-0.125592
-0.115607
-0.105524
-0.0954929
-0.0856515
-0.0761474
-0.0670933
-0.0586032
-0.0507406
-0.0435727
-0.037105
-0.0313601
-0.0262918
-0.021893
-0.0180804
-0.0148367
-0.0120565
-0.00973167
-0.0077422
-0.00610769
-0.0046897
-0.00355369
-0.0025267
-0.00173806
-0.000952225
-0.000387104
-0.217945
-0.219432
-0.218843
-0.218828
-0.218995
-0.218875
-0.218376
-0.217439
-0.216099
-0.214456
-0.212431
-0.209925
-0.206895
-0.203316
-0.19916
-0.194404
-0.189029
-0.183028
-0.176399
-0.169154
-0.161318
-0.152936
-0.144065
-0.134785
-0.125183
-0.115363
-0.105441
-0.095561
-0.0858559
-0.0764694
-0.0675117
-0.0590956
-0.0512841
-0.044146
-0.0376882
-0.0319367
-0.0268475
-0.0224175
-0.0185653
-0.0152776
-0.01245
-0.0100781
-0.00804106
-0.00636212
-0.0049002
-0.00372459
-0.00265767
-0.00183354
-0.0010085
-0.000409536
-0.21492
-0.216746
-0.216282
-0.216287
-0.216511
-0.216446
-0.215999
-0.215161
-0.213892
-0.212299
-0.210323
-0.207877
-0.204919
-0.201419
-0.197351
-0.192693
-0.187427
-0.181544
-0.175044
-0.167938
-0.160252
-0.152028
-0.143322
-0.13421
-0.124776
-0.115124
-0.105366
-0.0956379
-0.0860704
-0.0768031
-0.0679429
-0.0596018
-0.0518423
-0.0447347
-0.0382873
-0.0325292
-0.0274188
-0.022957
-0.0190644
-0.0157319
-0.0128558
-0.0104356
-0.00834965
-0.00662491
-0.00511778
-0.00390118
-0.00279308
-0.00193209
-0.0010668
-0.000432257
-0.211806
-0.21398
-0.213675
-0.213693
-0.21397
-0.213974
-0.213587
-0.212816
-0.21163
-0.210099
-0.208181
-0.205802
-0.202918
-0.199501
-0.195525
-0.190968
-0.185813
-0.180052
-0.173683
-0.166721
-0.159186
-0.151123
-0.142583
-0.133641
-0.124378
-0.114895
-0.1053
-0.0957265
-0.0862979
-0.0771506
-0.068389
-0.0601238
-0.052417
-0.0453403
-0.0389035
-0.0331387
-0.0280068
-0.0235125
-0.0195788
-0.0162003
-0.0132745
-0.0108046
-0.00866847
-0.00689649
-0.00534276
-0.00408376
-0.00293313
-0.00203389
-0.00112714
-0.000455297
-0.208609
-0.211124
-0.210999
-0.211035
-0.21136
-0.211437
-0.211114
-0.210409
-0.209307
-0.207844
-0.20599
-0.20368
-0.200874
-0.197543
-0.193662
-0.189209
-0.184168
-0.178531
-0.172297
-0.165479
-0.1581
-0.150199
-0.141828
-0.133058
-0.123969
-0.114658
-0.105229
-0.0958115
-0.086524
-0.0774993
-0.0688386
-0.0606515
-0.0529995
-0.0459555
-0.0395306
-0.0337602
-0.0286075
-0.0240809
-0.0201059
-0.0166809
-0.0137047
-0.0111842
-0.00899678
-0.00717633
-0.00557479
-0.00427206
-0.00307767
-0.00213876
-0.00118949
-0.000478588
-0.205385
-0.208181
-0.208248
-0.208313
-0.20868
-0.208834
-0.208582
-0.207946
-0.206926
-0.205535
-0.203748
-0.201512
-0.198786
-0.195543
-0.191759
-0.187413
-0.182488
-0.176978
-0.170882
-0.164212
-0.156989
-0.149254
-0.141054
-0.132459
-0.123546
-0.114409
-0.105149
-0.0958899
-0.086746
-0.0778461
-0.0692888
-0.0611822
-0.0535874
-0.0465779
-0.0401667
-0.0343919
-0.0292192
-0.0246608
-0.0206446
-0.0171729
-0.0141458
-0.0115738
-0.00933419
-0.00746412
-0.00581366
-0.00446588
-0.00322658
-0.00224658
-0.00125382
-0.000502079
-0.202142
-0.205156
-0.205426
-0.205533
-0.205937
-0.206168
-0.205994
-0.205431
-0.20449
-0.203174
-0.201459
-0.199299
-0.196657
-0.193506
-0.189821
-0.185584
-0.180778
-0.175397
-0.169441
-0.162921
-0.155858
-0.14829
-0.140263
-0.131846
-0.123111
-0.11415
-0.105061
-0.095962
-0.0869638
-0.078191
-0.0697394
-0.0617154
-0.0541797
-0.0472067
-0.040811
-0.0350329
-0.0298413
-0.0252516
-0.0211944
-0.0176757
-0.0145973
-0.011973
-0.00968041
-0.0077596
-0.00605919
-0.00466507
-0.00337978
-0.00235725
-0.0013201
-0.000525735
-0.198868
-0.20206
-0.202536
-0.202699
-0.203139
-0.203444
-0.203354
-0.202867
-0.202005
-0.200766
-0.199126
-0.197046
-0.194491
-0.191434
-0.187852
-0.183726
-0.179041
-0.173792
-0.167977
-0.161609
-0.154707
-0.147309
-0.139458
-0.13122
-0.122664
-0.113882
-0.104965
-0.0960278
-0.087177
-0.0785331
-0.0701892
-0.0622499
-0.0547755
-0.0478408
-0.0414621
-0.0356822
-0.0304727
-0.0258522
-0.0217544
-0.0181885
-0.0150586
-0.0123813
-0.010035
-0.00806244
-0.00631111
-0.00486942
-0.00353712
-0.00247065
-0.00138829
-0.000549519
-0.195567
-0.198906
-0.199585
-0.199818
-0.200292
-0.200669
-0.200665
-0.200258
-0.199475
-0.198316
-0.196755
-0.194757
-0.192291
-0.18933
-0.185853
-0.181841
-0.17728
-0.172165
-0.166494
-0.160279
-0.153541
-0.146313
-0.138639
-0.130581
-0.122207
-0.113604
-0.10486
-0.0960866
-0.0873847
-0.0788714
-0.070637
-0.0627844
-0.0553731
-0.0484786
-0.0421187
-0.0363383
-0.031112
-0.0264614
-0.0223236
-0.0187105
-0.0155289
-0.0127981
-0.0103975
-0.00837219
-0.00656908
-0.00507864
-0.0036984
-0.00258662
-0.00145829
-0.000573393
-0.192253
-0.195702
-0.196578
-0.196894
-0.197404
-0.197848
-0.197933
-0.197609
-0.196906
-0.195827
-0.194348
-0.192437
-0.190062
-0.1872
-0.18383
-0.179934
-0.175498
-0.170518
-0.164993
-0.158933
-0.152359
-0.145303
-0.137807
-0.129931
-0.121739
-0.113316
-0.104747
-0.0961379
-0.0875861
-0.0792047
-0.0710816
-0.0633172
-0.055971
-0.0491184
-0.042779
-0.0369996
-0.0317577
-0.027078
-0.0229006
-0.0192406
-0.0160072
-0.0132225
-0.0107671
-0.00868828
-0.00683266
-0.00529235
-0.00386337
-0.00270493
-0.00153001
-0.000597319
-0.188932
-0.192459
-0.193523
-0.193932
-0.194483
-0.194991
-0.195163
-0.194925
-0.194304
-0.193307
-0.191913
-0.190089
-0.187809
-0.185048
-0.181787
-0.178008
-0.1737
-0.168856
-0.163478
-0.157575
-0.151165
-0.144282
-0.136965
-0.129271
-0.121262
-0.11302
-0.104625
-0.0961812
-0.0877804
-0.079532
-0.0715214
-0.0638469
-0.0565674
-0.0497585
-0.0434412
-0.0376643
-0.0324083
-0.0277003
-0.0234841
-0.0197775
-0.0164926
-0.0136537
-0.0111431
-0.00901005
-0.00710131
-0.00551013
-0.0040317
-0.00282534
-0.0016033
-0.000621261
-0.185608
-0.189186
-0.190427
-0.190941
-0.191537
-0.192105
-0.192363
-0.192214
-0.191676
-0.190762
-0.189454
-0.187721
-0.185537
-0.182879
-0.179728
-0.176069
-0.171889
-0.167183
-0.161952
-0.156206
-0.149963
-0.143253
-0.136115
-0.128603
-0.120777
-0.112715
-0.104496
-0.0962163
-0.0879667
-0.0798521
-0.071955
-0.0643717
-0.0571605
-0.0503968
-0.0441035
-0.0383305
-0.0330617
-0.0283266
-0.0240726
-0.0203198
-0.0169836
-0.0140904
-0.0115246
-0.00933669
-0.00737439
-0.00573143
-0.00420301
-0.00294755
-0.00167799
-0.000645182
-0.182292
-0.185896
-0.187303
-0.187928
-0.188576
-0.189201
-0.189542
-0.189482
-0.18903
-0.188201
-0.18698
-0.185339
-0.183253
-0.1807
-0.177661
-0.174121
-0.170071
-0.165504
-0.160421
-0.154832
-0.148755
-0.142217
-0.135258
-0.127927
-0.120284
-0.112402
-0.104357
-0.0962428
-0.0881445
-0.0801638
-0.072381
-0.0648898
-0.0577484
-0.0510314
-0.0447635
-0.038996
-0.0337159
-0.0289549
-0.024664
-0.0208658
-0.0174788
-0.0145314
-0.0119104
-0.00966725
-0.00765112
-0.00595563
-0.00437682
-0.00307122
-0.00175387
-0.000669045
-0.178996
-0.182603
-0.184162
-0.184903
-0.185609
-0.186291
-0.18671
-0.18674
-0.186375
-0.185631
-0.184499
-0.182952
-0.180965
-0.178517
-0.175591
-0.172173
-0.168252
-0.163824
-0.158889
-0.153457
-0.147545
-0.14118
-0.134397
-0.127248
-0.119786
-0.112083
-0.104211
-0.0962605
-0.0883129
-0.0804661
-0.0727978
-0.0653995
-0.0583288
-0.0516598
-0.045419
-0.0396585
-0.0343687
-0.029583
-0.0252565
-0.0214135
-0.0179765
-0.0149752
-0.0122992
-0.0100006
-0.00793059
-0.00618197
-0.00455258
-0.00319594
-0.00183066
-0.000692809
-0.175734
-0.17932
-0.181017
-0.181878
-0.182649
-0.183385
-0.18388
-0.183998
-0.183721
-0.183064
-0.18202
-0.180567
-0.178681
-0.176339
-0.173526
-0.170229
-0.166438
-0.162149
-0.157361
-0.152086
-0.146337
-0.140143
-0.133536
-0.126566
-0.119283
-0.111758
-0.104058
-0.0962693
-0.0884713
-0.0807577
-0.0732038
-0.0658987
-0.0588996
-0.0522798
-0.0460674
-0.0403154
-0.0350174
-0.0302084
-0.0258476
-0.0219609
-0.0184748
-0.01542
-0.0126895
-0.0103356
-0.00821174
-0.0064096
-0.00472962
-0.00332123
-0.00190808
-0.000716425
-0.172521
-0.176065
-0.177883
-0.178866
-0.179707
-0.180499
-0.181064
-0.181268
-0.18108
-0.18051
-0.179555
-0.178197
-0.17641
-0.174175
-0.171476
-0.1683
-0.164638
-0.160486
-0.155845
-0.150724
-0.145137
-0.139112
-0.132679
-0.125885
-0.118779
-0.111428
-0.103898
-0.0962693
-0.0886192
-0.0810375
-0.0735974
-0.0663855
-0.0594583
-0.0528886
-0.0467059
-0.0409638
-0.0356592
-0.0308284
-0.0264348
-0.0225056
-0.0189715
-0.015864
-0.0130797
-0.0106705
-0.00849333
-0.00663752
-0.00490716
-0.00344657
-0.00198575
-0.000739838
-0.169372
-0.172854
-0.174779
-0.175882
-0.176799
-0.177646
-0.178279
-0.178565
-0.178465
-0.177982
-0.177116
-0.175851
-0.174165
-0.172036
-0.169449
-0.166393
-0.162859
-0.158843
-0.154347
-0.149378
-0.143951
-0.138091
-0.131829
-0.125208
-0.118276
-0.111096
-0.103732
-0.0962606
-0.088756
-0.0813045
-0.073977
-0.0668576
-0.0600025
-0.0534835
-0.0473315
-0.0416007
-0.0362909
-0.03144
-0.027015
-0.0230448
-0.019464
-0.0163047
-0.0134676
-0.0110039
-0.00877392
-0.00686456
-0.00508429
-0.00357132
-0.00206326
-0.000762976
-0.166306
-0.169709
-0.171722
-0.172944
-0.17394
-0.174843
-0.17554
-0.175905
-0.17589
-0.175494
-0.174717
-0.173545
-0.171956
-0.169932
-0.167457
-0.164519
-0.161111
-0.157229
-0.152874
-0.148055
-0.142784
-0.137086
-0.13099
-0.124538
-0.117776
-0.110763
-0.103561
-0.0962437
-0.0888814
-0.0815574
-0.0743407
-0.0673127
-0.0605294
-0.0540613
-0.0479409
-0.0422225
-0.0369092
-0.0320396
-0.0275852
-0.0235754
-0.0199496
-0.0167398
-0.0138512
-0.0113336
-0.00905188
-0.00708941
-0.00525997
-0.00369478
-0.00214012
-0.000785748
-0.163341
-0.166649
-0.168735
-0.17007
-0.171148
-0.17211
-0.172867
-0.173306
-0.173374
-0.173063
-0.172373
-0.171291
-0.1698
-0.167878
-0.165512
-0.162691
-0.159406
-0.155655
-0.151438
-0.146763
-0.141644
-0.136103
-0.130169
-0.123881
-0.117283
-0.110433
-0.103387
-0.0962192
-0.0889952
-0.0817955
-0.0746869
-0.0677487
-0.0610362
-0.0546188
-0.0485305
-0.0428255
-0.0375101
-0.0326236
-0.0281415
-0.0240941
-0.0204249
-0.0171664
-0.0142277
-0.0116576
-0.00932533
-0.00731056
-0.00543299
-0.00381614
-0.0022158
-0.000808042
-0.160499
-0.163699
-0.165841
-0.167283
-0.168444
-0.169464
-0.170279
-0.170787
-0.170934
-0.170706
-0.170101
-0.169108
-0.16771
-0.165889
-0.163629
-0.16092
-0.157755
-0.15413
-0.150046
-0.145512
-0.140539
-0.13515
-0.129371
-0.123241
-0.116801
-0.110106
-0.103213
-0.0961878
-0.0890972
-0.0820175
-0.0750138
-0.0681629
-0.0615197
-0.0551524
-0.0490964
-0.0434057
-0.0380896
-0.0331878
-0.02868
-0.0245969
-0.0208866
-0.0175811
-0.0145943
-0.0119732
-0.00959211
-0.00752627
-0.00560199
-0.00393447
-0.00228967
-0.000829712
-0.157799
-0.160883
-0.163065
-0.164606
-0.16585
-0.166929
-0.167798
-0.16837
-0.168591
-0.168443
-0.16792
-0.167013
-0.165705
-0.16398
-0.161823
-0.159222
-0.156171
-0.152667
-0.148712
-0.144311
-0.139478
-0.134234
-0.128603
-0.122623
-0.116334
-0.109788
-0.103038
-0.0961506
-0.0891874
-0.0822225
-0.0753195
-0.0685527
-0.0619767
-0.0556584
-0.0496344
-0.0439586
-0.0386429
-0.0337276
-0.0291962
-0.0250796
-0.0213305
-0.0179803
-0.0149478
-0.0122777
-0.0098498
-0.0077346
-0.00576539
-0.00404869
-0.00236104
-0.000850582
-0.155266
-0.158228
-0.160435
-0.162065
-0.163391
-0.164529
-0.165449
-0.16608
-0.16637
-0.166296
-0.165852
-0.165026
-0.163805
-0.162171
-0.16011
-0.157612
-0.15467
-0.151282
-0.147447
-0.143173
-0.138472
-0.133364
-0.127873
-0.122035
-0.115888
-0.109482
-0.102868
-0.096109
-0.089266
-0.0824098
-0.0756022
-0.0689154
-0.0624037
-0.0561326
-0.0501399
-0.0444792
-0.039165
-0.0342379
-0.029685
-0.0255374
-0.0217521
-0.0183599
-0.0152844
-0.0125679
-0.0100956
-0.00793332
-0.00592144
-0.00415762
-0.00242915
-0.000870436
-0.152923
-0.155762
-0.157982
-0.159691
-0.161095
-0.16229
-0.163258
-0.163943
-0.164295
-0.164291
-0.16392
-0.163171
-0.16203
-0.160482
-0.158512
-0.15611
-0.15327
-0.149988
-0.146266
-0.14211
-0.137532
-0.132551
-0.12719
-0.121483
-0.115468
-0.109191
-0.102703
-0.0960644
-0.0893332
-0.0825782
-0.0758597
-0.069248
-0.0627967
-0.0565704
-0.0506078
-0.0449621
-0.0396503
-0.034713
-0.0301408
-0.0259649
-0.0221465
-0.0187154
-0.0155999
-0.0128401
-0.0103265
-0.00811994
-0.00606812
-0.00425988
-0.00249311
-0.000889017
-0.150798
-0.153516
-0.155738
-0.157517
-0.158994
-0.160243
-0.161256
-0.161988
-0.162397
-0.162456
-0.162152
-0.161474
-0.160406
-0.158936
-0.157049
-0.154736
-0.151988
-0.148805
-0.145185
-0.141137
-0.136671
-0.131805
-0.126563
-0.120976
-0.11508
-0.108921
-0.102548
-0.0960188
-0.0893896
-0.082727
-0.0760901
-0.0695472
-0.0631517
-0.0569669
-0.0510325
-0.0454013
-0.0400925
-0.0351466
-0.0305575
-0.0263562
-0.0225079
-0.0190416
-0.0158898
-0.0130903
-0.010539
-0.00829161
-0.0062032
-0.0043539
-0.00255197
-0.000906021
-0.14892
-0.151524
-0.153741
-0.155578
-0.157121
-0.158422
-0.159476
-0.16025
-0.160707
-0.160822
-0.160578
-0.159962
-0.158961
-0.15756
-0.155747
-0.153512
-0.150848
-0.147751
-0.144223
-0.140271
-0.135904
-0.131141
-0.126003
-0.120522
-0.114732
-0.108678
-0.102407
-0.0959744