/*--------------------------------*- C++ -*----------------------------------*\
  =========                 |
  \\      /  F ield         | OpenFOAM: The Open Source CFD Toolbox
   \\    /   O peration     | Website:  https://openfoam.org
    \\  /    A nd           | Version:  7
     \\/     M anipulation  |
\*---------------------------------------------------------------------------*/
FoamFile
{
    version     2.0;
    format      ascii;
    class       surfaceScalarField;
    location    "20";
    object      phi;
}
// * * * * * * * * * * * * * * * * * * * * * * * * * * * * * * * * * * * * * //

dimensions      [0 3 -1 0 0 0 0];

internalField   nonuniform List<scalar> 
11919
(
-0.000768805
0.000125558
-5.6745e-09
-0.000900299
0.0001315
-5.63878e-09
-0.00103783
0.00013754
-5.25784e-09
-0.00118138
0.000143553
-4.40127e-09
-0.00133071
0.000149336
-2.93199e-09
-0.00148531
0.000154595
-7.15102e-10
-0.00164426
0.000158952
2.34409e-09
-0.00180604
0.000161772
6.31557e-09
-0.00196814
0.000162085
1.11808e-08
-0.00212903
0.000160872
1.68086e-08
-0.0022818
0.000152746
2.30148e-08
-0.00243265
0.000150823
2.92701e-08
0.000133573
3.54455e-08
-0.00256626
-0.000744748
0.000244703
-0.000868083
0.000254835
-0.000995313
0.000264769
-0.00112595
0.000274194
-0.00125926
0.000282639
-0.00139411
0.000289452
-0.00152901
0.000293843
-0.00166185
0.000294618
-0.00178898
0.000289213
-0.00190965
0.000281538
-0.00201181
0.000254912
-0.00210822
0.000247232
0.000192355
-0.002167
-0.000697357
0.000351252
-0.000804691
0.000362169
-0.000911778
0.000371855
-0.00101728
0.0003797
-0.00111949
0.000384849
-0.00121624
0.000386196
-0.00130484
0.000382444
-0.00138239
0.000372175
-0.00144268
0.000349503
-0.00148795
0.000326805
-0.00149528
0.000262244
-0.00149045
0.000242404
0.000119555
-0.00141765
-0.000627935
0.000439397
-0.000711982
0.000446217
-0.000789888
0.000449761
-0.000859175
0.000448986
-0.000916846
0.00044252
-0.000959347
0.000428696
-0.000982406
0.000405502
-0.000982458
0.000372227
-0.000948908
0.000315953
-0.000890063
0.00026796
-0.000769352
0.000141533
-0.000620732
9.37842e-05
-0.000112678
-0.000388499
-0.000538177
-0.000592304
0.000500344
-0.000632903
0.00049036
-0.000656154
0.000472237
-0.000657573
0.000443939
-0.000632065
0.000403188
-0.000573384
0.000346821
-0.000477609
0.000276452
-0.000330386
0.00016873
-0.000136635
7.42095e-05
0.000123256
-0.000118359
0.000452391
-0.00023535
-0.000531553
0.000871266
-0.000448042
0.000518488
-0.00044395
0.000486268
-0.000412323
0.00044061
-0.00034704
0.000378656
-0.000241405
0.000297554
-8.776e-05
0.000193175
0.000122283
6.64091e-05
0.000397631
-0.000106618
0.000739957
-0.000268116
0.00117993
-0.000558334
0.00168291
-0.000738328
-0.00117305
0.0023244
-0.000281109
0.000494886
-0.000225259
0.000430418
-0.000130242
0.000345594
1.17821e-05
0.000236632
0.000209474
9.98621e-05
0.000471422
-6.8773e-05
0.000807767
-0.000269936
0.0012289
-0.000527751
0.00173738
-0.000776593
0.00236169
-0.00118265
0.00305934
-0.00143598
-0.00203939
0.00392569
-9.24374e-05
0.000423646
2.25504e-05
0.00031543
0.000189976
0.000178169
0.000419464
7.14361e-06
0.000721591
-0.000202265
0.00110444
-0.000451618
0.0015835
-0.000748999
0.00215888
-0.00110313
0.00284601
-0.00146372
0.00365455
-0.0019912
0.00454604
-0.00232747
-0.00310255
0.0056092
0.0001185
0.000298198
0.000300992
0.000132938
0.000551114
-7.19539e-05
0.000879872
-0.000321614
0.00129959
-0.00062198
0.0018162
-0.000968228
0.002448
-0.0013808
0.00318397
-0.0018391
0.00404646
-0.00232621
0.00501739
-0.00296213
0.00608211
-0.00339219
-0.00429148
0.00727104
0.000354028
0.000110741
0.000613883
-0.000126918
0.000958328
-0.000416399
0.00139908
-0.000762363
0.0019476
-0.0011705
0.00260773
-0.00162836
0.00339077
-0.00216384
0.00427992
-0.00272825
0.00529159
-0.00333788
0.00637445
-0.00404498
0.00755677
-0.00457451
-0.00550103
0.00876632
0.000618321
0.000966819
-0.000475416
0.00141761
-0.000867186
0.00198117
-0.00132593
0.00266354
-0.00185287
0.00346539
-0.00243021
0.00438081
-0.00307927
0.00539052
-0.00373796
0.00649406
-0.00444142
0.00761665
-0.00516758
0.00882011
-0.00577797
-0.00663006
0.00994915
0.00136551
-0.000924059
0.00193216
-0.00143384
0.00262226
-0.00201603
0.00343136
-0.00266196
0.00435218
-0.00335104
0.00535879
-0.00408587
0.00642883
-0.00480799
0.00754034
-0.00555294
0.00862295
-0.00625018
0.00973648
-0.00689151
-0.00760448
0.0107109
0.0018126
-0.00148168
0.0024973
-0.00211853
0.00330397
-0.00282271
0.0042141
-0.00357208
0.00520725
-0.00434419
0.00624263
-0.00512125
0.00729562
-0.00586099
0.00832994
-0.00658726
0.00930332
-0.00722356
0.0102527
-0.0078409
-0.00840927
0.0110575
0.00230333
-0.00214987
0.00309508
-0.00291028
0.00398989
-0.00371751
0.00495474
-0.00453693
0.00595661
-0.00534607
0.00695024
-0.00611488
0.00791458
-0.00682532
0.00881494
-0.00748762
0.00964359
-0.00805221
0.0104192
-0.00861656
-0.0090792
0.0110892
0.00282136
0.00369204
-0.00378097
0.00462886
-0.00465433
0.00558907
-0.00549714
0.00653508
-0.00629207
0.00742983
-0.00700963
0.00826376
-0.00765926
0.00901645
-0.00824031
0.00970861
-0.00874438
0.0103492
-0.0092571
-0.00966286
0.0109328
0.00424354
-0.004687
0.00516727
-0.00557805
0.00606619
-0.00639606
0.00690968
-0.00713556
0.00767874
-0.0077787
0.00837859
-0.00835911
0.00900541
-0.00886712
0.00959618
-0.00933515
0.0101487
-0.00980961
-0.0101968
0.0106826
0.00470504
0.00556593
-0.00643894
0.00636556
-0.00719569
0.00708879
-0.00785879
0.00773672
-0.00842663
0.00832502
-0.00894741
0.00886159
-0.00940369
0.0093859
-0.00985946
0.00988255
-0.0103063
-0.0107021
0.0103878
0.00581198
-0.00720525
0.00649975
-0.00788345
0.00711061
-0.00846966
0.0076601
-0.00897611
0.00816658
-0.00945389
0.00864367
-0.00988078
0.00912304
-0.0103388
0.00958174
-0.010765
-0.0111909
0.0100706
0.00591823
0.00650216
-0.00846738
0.0070217
-0.0089892
0.00749841
-0.00945283
0.0079479
-0.00990338
0.00838553
-0.0103184
0.00882939
-0.0107827
0.00926012
-0.0111957
-0.0116711
0.00974037
0.0064105
-0.00896552
0.00686127
-0.00943997
0.00728582
-0.00987737
0.00769539
-0.010313
0.00810484
-0.0107279
0.00851691
-0.0111948
0.00891979
-0.0115986
-0.0121497
0.00939831
0.00625414
0.00665457
-0.0098404
0.00704111
-0.0102639
0.00742136
-0.0106932
0.00780771
-0.0111142
0.00819491
-0.011582
0.00859065
-0.0119943
-0.0125363
0.00897728
0.00642279
-0.0102033
0.00678001
-0.0106211
0.0071366
-0.0110498
0.00750084
-0.0114784
0.00786521
-0.0119463
0.00824718
-0.0123763
-0.0129149
0.00862574
0.00617405
0.00650706
-0.0109541
0.00684248
-0.0113852
0.00718544
-0.0118214
0.0075325
-0.0122934
0.00789
-0.0127338
-0.013275
0.00825012
0.00622554
0.00654074
-0.0117004
0.00686408
-0.0121447
0.00719004
-0.0126194
0.00752916
-0.0130729
-0.0136202
0.00787442
0.00623278
0.00653548
-0.0124474
0.00684235
-0.0129262
0.00716183
-0.0133924
-0.0139411
0.00748273
0.00620132
0.00648769
-0.0132126
0.00678551
-0.0136902
-0.0142418
0.00708613
0.00612701
0.0064034
-0.0139666
-0.0145189
0.00668059
0.00601426
0.00626859
0.00601426
0.0139666
0.0145189
0.0062686
0.00612701
0.0132126
0.0064034
0.0136902
0.0142418
0.00668059
0.00620132
0.0124474
0.00648769
0.0129262
0.00678551
0.0133924
0.0139411
0.00708613
0.00623278
0.0117004
0.00653548
0.0121447
0.00684236
0.0126193
0.00716183
0.0130729
0.0136202
0.00748273
0.00622554
0.0109541
0.00654074
0.0113852
0.00686408
0.0118214
0.00719004
0.0122934
0.00752916
0.0127338
0.013275
0.00787442
0.00617405
0.0102033
0.00650706
0.0106211
0.00684249
0.0110498
0.00718545
0.0114784
0.0075325
0.0119463
0.00789
0.0123763
0.0129149
0.00825012
0.00642279
0.0098404
0.00678001
0.0102639
0.0071366
0.0106932
0.00750085
0.0111142
0.00786521
0.011582
0.00824718
0.0119943
0.0125363
0.00862575
0.00625414
0.00896552
0.00665457
0.00943997
0.00704111
0.00987736
0.00742136
0.0103129
0.00780771
0.0107278
0.00819491
0.0111948
0.00859066
0.0115986
0.0121497
0.00897729
0.0064105
0.00846738
0.00686127
0.00898919
0.00728582
0.00945282
0.00769539
0.00990337
0.00810484
0.0103184
0.00851691
0.0107827
0.00891979
0.0111957
0.0116711
0.00939832
0.00591823
0.00720525
0.00650216
0.00788345
0.0070217
0.00846965
0.00749841
0.0089761
0.0079479
0.00945388
0.00838553
0.00988077
0.00882939
0.0103388
0.00926013
0.010765
0.0111909
0.00974038
0.00581197
0.00643894
0.00649974
0.00719568
0.00711061
0.00785878
0.00766009
0.00842662
0.00816658
0.0089474
0.00864367
0.00940368
0.00912305
0.00985945
0.00958175
0.0103063
0.0107021
0.0100706
0.00470504
0.004687
0.00556593
0.00557805
0.00636556
0.00639605
0.00708879
0.00713555
0.00773672
0.00777869
0.00832503
0.0083591
0.00886159
0.00886711
0.0093859
0.00933513
0.00988256
0.0098096
0.0101968
0.0103878
0.00424354
0.00378096
0.00516726
0.00465433
0.00606618
0.00549713
0.00690967
0.00629206
0.00767874
0.00700962
0.00837859
0.00765924
0.00900541
0.00824029
0.00959618
0.00874436
0.0101487
0.00925709
0.00966285
0.0106826
0.00282135
0.00214987
0.00369204
0.00291028
0.00462886
0.00371751
0.00558906
0.00453692
0.00653507
0.00534605
0.00742982
0.00611487
0.00826376
0.0068253
0.00901645
0.0074876
0.00970862
0.00805219
0.0103492
0.00861654
0.00907919
0.0109328
0.00230333
0.00148169
0.00309507
0.00211853
0.00398988
0.0028227
0.00495473
0.00357207
0.0059566
0.00434418
0.00695023
0.00512123
0.00791457
0.00586096
0.00881494
0.00658724
0.00964359
0.00722354
0.0104193
0.00784088
0.00840926
0.0110892
0.0018126
0.000924061
0.00249729
0.00143384
0.00330396
0.00201603
0.00421409
0.00266195
0.00520724
0.00335103
0.00624262
0.00408586
0.00729561
0.00480797
0.00832993
0.00555291
0.00930332
0.00625015
0.0102527
0.00689148
0.00760446
0.0110575
0.0013655
0.00047542
0.00193215
0.000867188
0.00262225
0.00132593
0.00343134
0.00185286
0.00435217
0.0024302
0.00535878
0.00307925
0.00642881
0.00373794
0.00754033
0.00444139
0.00862294
0.00516755
0.00973648
0.00577794
0.00663003
0.0107109
0.000618315
-0.000110735
0.000966811
0.000126923
0.0014176
0.000416401
0.00198116
0.000762364
0.00266353
0.00117049
0.00346538
0.00162835
0.0043808
0.00216383
0.00539051
0.00272823
0.00649404
0.00333785
0.00761664
0.00404495
0.00882011
0.00457447
0.00550099
0.00994915
0.000354021
-0.000298192
0.000613876
-0.000132932
0.00095832
7.19581e-05
0.00139907
0.000321615
0.00194759
0.000621977
0.00260772
0.000968221
0.00339076
0.00138079
0.0042799
0.00183908
0.00529158
0.00232618
0.00637443
0.00296209
0.00755676
0.00339215
0.00429144
0.00876631
0.000118494
-0.000423638
0.000300985
-0.000315423
0.000551106
-0.000178163
0.000879862
-7.14079e-06
0.00129958
0.000202264
0.00181618
0.000451612
0.00244798
0.000748986
0.00318395
0.00110311
0.00404644
0.00146369
0.00501738
0.00199116
0.0060821
0.00232742
0.0031025
0.00727104
-9.24427e-05
-0.000494877
2.25441e-05
-0.00043041
0.000189968
-0.000345588
0.000419456
-0.000236628
0.000721582
-9.9862e-05
0.00110443
6.87679e-05
0.00158349
0.000269924
0.00215887
0.000527731
0.002846
0.000776564
0.00365454
0.00118262
0.00454603
0.00143593
0.00203934
0.00560919
-0.000281114
-0.000518478
-0.000225264
-0.00048626
-0.000130249
-0.000440603
1.17751e-05
-0.000378652
0.000209466
-0.000297553
0.000471413
-0.00019318
0.000807758
-6.64203e-05
0.00122889
0.000106599
0.00173737
0.000268088
0.00236169
0.000558297
0.00305934
0.000738281
0.00117299
0.00392569
-0.000448046
-0.000500334
-0.000443955
-0.000490351
-0.000412328
-0.00047223
-0.000347046
-0.000443934
-0.000241412
-0.000403187
-8.77664e-05
-0.000346825
0.000122276
-0.000276463
0.000397625
-0.00016875
0.000739952
-7.42388e-05
0.00117993
0.00011832
0.00168291
0.000235301
0.000531496
0.00232441
-0.00053818
-0.000439387
-0.000592308
-0.000446206
-0.000632907
-0.000449751
-0.000656159
-0.000448978
-0.000657578
-0.000442515
-0.00063207
-0.000428695
-0.000573388
-0.000405506
-0.000477613
-0.000372238
-0.00033039
-0.000315973
-0.000136638
-0.00026799
0.000123256
-0.000141574
0.000452393
-9.38359e-05
0.000112617
0.000871272
-0.000627937
-0.000351241
-0.000711985
-0.000362158
-0.000789891
-0.000371845
-0.000859178
-0.000379691
-0.00091685
-0.000384843
-0.000959351
-0.000386194
-0.000982409
-0.000382448
-0.000982461
-0.000372187
-0.00094891
-0.000349524
-0.000890064
-0.000326837
-0.000769351
-0.000262287
-0.000620729
-0.000242458
-0.000119619
-0.000388492
-0.000697359
-0.000244692
-0.000804693
-0.000254824
-0.00091178
-0.000264759
-0.00101728
-0.000274186
-0.00111949
-0.000282633
-0.00121624
-0.00028945
-0.00130484
-0.000293848
-0.00138239
-0.000294631
-0.00144268
-0.000289235
-0.00148795
-0.000281571
-0.00149528
-0.000254956
-0.00149045
-0.000247289
-0.000192423
-0.00141765
-0.000744749
-0.000125546
-0.000868085
-0.000131489
-0.000995314
-0.000137529
-0.00112596
-0.000143544
-0.00125926
-0.00014933
-0.00139412
-0.000154593
-0.00152901
-0.000158957
-0.00166185
-0.000161785
-0.00178898
-0.000162107
-0.00190965
-0.000160906
-0.00201181
-0.000152792
-0.00210822
-0.000150881
-0.000133643
-0.002167
-0.000768805
-0.000900299
-0.00103783
-0.00118138
-0.00133072
-0.00148531
-0.00164426
-0.00180604
-0.00196814
-0.00212903
-0.0022818
-0.00243265
-0.00256625
-0.00257919
1.29051e-05
2.44582e-08
-0.00258901
9.79663e-06
2.62672e-08
-0.00259528
6.24004e-06
2.77755e-08
-0.00259739
2.08087e-06
2.84434e-08
-0.00259467
-2.74058e-06
2.74056e-08
-0.00258636
-8.34328e-06
2.62466e-08
-0.00257122
-1.51651e-05
2.44927e-08
-0.00254791
-2.33316e-05
2.16118e-08
-0.00251492
-3.30059e-05
1.7476e-08
-0.00247057
-4.43593e-05
1.20516e-08
-0.00241308
-5.74906e-05
5.24729e-09
-0.00234046
-7.26172e-05
-2.71437e-09
-0.00225063
-8.98194e-05
-1.16845e-08
-0.00214148
-0.000109136
-2.13929e-08
-0.00201092
-0.000130529
-3.1422e-08
-0.00185701
-0.000153869
-4.12628e-08
-0.00167805
-0.000178902
-5.03283e-08
-0.00147286
-0.00020514
-5.79929e-08
-0.00124005
-0.000232745
-6.35768e-08
-0.00098034
-0.000259642
-6.6419e-08
-0.000693868
-0.000286406
-6.59493e-08
-0.000381795
-0.000312011
-6.19655e-08
-4.60636e-05
-0.000335677
-5.45246e-08
0.000309435
-0.000355456
-4.34424e-08
0.000682308
-0.000372843
-2.99457e-08
0.00106838
-0.000386054
-1.43838e-08
0.00146333
-0.000394953
2.05844e-09
0.00186246
-0.00039915
1.81717e-08
0.00226143
-0.000399005
3.28766e-08
0.00265569
-0.000394307
4.5067e-08
0.00304166
-0.000386025
5.38971e-08
0.00341556
-0.00037395
5.8838e-08
0.00377509
-0.000359593
5.96664e-08
0.00411755
-0.000342518
5.65585e-08
0.00444213
-0.00032463
4.99245e-08
0.00474709
-0.000305
4.05158e-08
0.00503305
-0.000285989
2.92017e-08
0.00529873
-0.000265699
1.69116e-08
0.00554621
-0.000247479
4.7872e-09
0.00577388
-0.000227668
-6.5652e-09
0.00598547
-0.000211569
-1.58182e-08
0.00617824
-0.000192755
-2.3342e-08
0.00635787
-0.000179595
-2.74156e-08
0.00651961
-0.00016171
-2.97766e-08
0.00667176
-0.000152128
-2.83447e-08
0.00680652
-0.000134729
-2.58582e-08
0.00693583
-0.000129291
-2.07382e-08
0.00704802
-0.000112171
-1.45212e-08
0.00715871
-0.000110689
-9.51004e-09
-9.41622e-05
2.14658e-11
-0.00217042
1.63265e-05
-0.00217197
1.13402e-05
-0.00216942
3.6891e-06
-0.00216279
-4.54195e-06
-0.00215161
-1.39232e-05
-0.00213466
-2.52934e-05
-0.00211092
-3.89086e-05
-0.00207915
-5.51003e-05
-0.00203794
-7.42179e-05
-0.00198568
-9.66203e-05
-0.00192077
-0.000122395
-0.00184134
-0.000152049
-0.00174544
-0.000185722
-0.0016311
-0.000223471
-0.00149642
-0.00026521
-0.00133962
-0.00031067
-0.00115915
-0.000359367
-0.000954001
-0.000410292
-0.000722678
-0.000464068
-0.000466192
-0.000516128
-0.000184766
-0.000567832
0.000119783
-0.000616559
0.000445301
-0.000661194
0.000789902
-0.000700057
0.00114976
-0.000732705
0.00152102
-0.00075731
0.00189958
-0.000773513
0.00228096
-0.000780535
0.00266106
-0.000779104
0.00303559
-0.000768838
0.00340122
-0.00075165
0.00375447
-0.000727197
0.00409326
-0.000698384
0.00441519
-0.000664454
0.00471958
-0.000629015
0.00500495
-0.000590376
0.00527196
-0.000552995
0.00551957
-0.000513306
0.00574975
-0.000477666
0.00596119
-0.000439101
0.00615734
-0.000407727
0.00633583
-0.000371242
0.00650191
-0.000345675
0.0066513
-0.000311097
0.00679169
-0.00029252
0.00691596
-0.000259001
0.00703512
-0.000248446
0.00713858
-0.000215637
0.00724056
-0.000212664
-0.000181161
-0.00140389
2.5631e-06
-0.00139016
-2.39328e-06
-0.00137363
-1.28388e-05
-0.00135285
-2.53214e-05
-0.001327
-3.97704e-05
-0.00129547
-5.68232e-05
-0.00125732
-7.70605e-05
-0.00121145
-0.000100972
-0.00115661
-0.000129055
-0.00109137
-0.000161865
-0.00101436
-0.000199403
-0.000923944
-0.000242465
-0.000818426
-0.000291241
-0.000696099
-0.000345797
-0.000555308
-0.000406002
-0.000394527
-0.000471451
-0.000212366
-0.000541528
-7.25497e-06
-0.000615403
0.000217469
-0.000688792
0.000465303
-0.000763962
0.000734804
-0.000837334
0.00102457
-0.000906324
0.00133254
-0.000969163
0.00165602
-0.00102354
0.00199159
-0.00106827
0.00233561
-0.00110133
0.00268431
-0.00112221
0.0030336
-0.00112982
0.00337977
-0.00112528
0.00371903
-0.0011081
0.00404846
-0.00108108
0.0043651
-0.00104384
0.00466722
-0.0010005
0.00495291
-0.00095014
0.00522167
-0.000897775
0.00547248
-0.000841193
0.00570603
-0.000786546
0.00592169
-0.000728966
0.00612129
-0.000677262
0.00630392
-0.000621728
0.00647266
-0.000576469
0.00662569
-0.00052427
0.00676758
-0.000487564
0.00689484
-0.000438362
0.0070141
-0.000411775
0.00711949
-0.00036439
0.00722028
-0.000349241
0.00730795
-0.000303302
0.00739407
-0.000298785
-0.000255086
-0.000356455
-2.94805e-05
-0.000326536
-3.23128e-05
-0.00029391
-4.54651e-05
-0.000256797
-6.24337e-05
-0.000214791
-8.17771e-05
-0.000167259
-0.000104355
-0.000113308
-0.000131012
-5.19723e-05
-0.000162308
1.76993e-05
-0.000198726
9.63128e-05
-0.000240478
0.000185593
-0.000288683
0.000286769
-0.00034364
0.000401157
-0.000405629
0.000530078
-0.000474718
0.00067479
-0.000550713
0.0008364
-0.000633061
0.00101576
-0.000720885
0.00121323
-0.000812871
0.00143007
-0.000905635
0.00166506
-0.000998955
0.00191739
-0.00108966
0.00218573
-0.00117467
0.00246808
-0.00125152
0.00276194
-0.0013174
0.00306425
-0.00137059
0.00337171
-0.00140879
0.00368095
-0.00143146
0.00398841
-0.00143728
0.00429089
-0.00142776
0.00458521
-0.00140241
0.00486892
-0.00136479
0.00513969
-0.00131461
0.00539612
-0.00125693
0.00563687
-0.00119089
0.00586165
-0.00112255
0.00606989
-0.00104944
0.0062623
-0.000978948
0.00643866
-0.000905334
0.00660061
-0.000839207
0.00674773
-0.00076885
0.0068826
-0.000711339
0.00700409
-0.000645755
0.0071159
-0.000599375
0.00721556
-0.000538024
0.00730832
-0.000504531
0.00738994
-0.000446015
0.00746751
-0.000426807
0.0075351
-0.000370891
0.00760099
-0.000364679
-0.000312211
0.000907802
-6.60172e-05
0.00094885
-7.33603e-05
0.000992984
-8.95994e-05
0.00104147
-0.000110924
0.00109502
-0.000135319
0.00115414
-0.000163478
0.0012195
-0.000196378
0.00129178
-0.000234586
0.00137166
-0.0002786
0.00146007
-0.000328889
0.00155777
-0.000386387
0.00166568
-0.000451549
0.00178472
-0.000524667
0.0019158
-0.000605802
0.00205979
-0.000694708
0.00221743
-0.000790698
0.00238921
-0.000892663
0.00257528
-0.000998943
0.00277628
-0.00110663
0.00299121
-0.00121389
0.00321916
-0.0013176
0.00345875
-0.00141426
0.00370814
-0.0015009
0.00396505
-0.00157431
0.0042269
-0.00163243
0.00449084
-0.00167273
0.00475406
-0.00169468
0.00501361
-0.00169682
0.00526689
-0.00168104
0.00551138
-0.0016469
0.00574514
-0.00159856
0.00596643
-0.0015359
0.0061742
-0.0014647
0.00636759
-0.00138428
0.00654642
-0.00130138
0.00671053
-0.00121355
0.00686052
-0.00112893
0.00699655
-0.00104137
0.00711994
-0.000962593
0.00723075
-0.000879656
0.00733095
-0.000811542
0.00742011
-0.000734912
0.00750101
-0.000680277
0.00757221
-0.000609231
0.00763751
-0.000569824
0.0076944
-0.000502907
0.00774763
-0.00048004
0.00779409
-0.000417345
0.00783858
-0.000409174
-0.00035137
0.00235127
-9.28874e-05
0.00238966
-0.000111742
0.00243451
-0.000134458
0.0024846
-0.000161008
0.00254026
-0.000190976
0.002602
-0.000225218
0.00267026
-0.000264643
0.00274537
-0.000309693
0.00282763
-0.000360858
0.00291756
-0.000418826
0.00301563
-0.000484448
0.00312233
-0.000558256
0.00323819
-0.000640521
0.00336366
-0.000731279
0.00349921
-0.000830251
0.00364515
-0.000936647
0.00380167
-0.00104918
0.00396871
-0.00116598
0.00414632
-0.00128424
0.0043337
-0.00140127
0.00452988
-0.00151378
0.00473356
-0.00161794
0.00494311
-0.00171045
0.00515664
-0.00178784
0.00537209
-0.00184788
0.00558722
-0.00188787
0.00579988
-0.00190734
0.00600784
-0.00190478
0.00620914
-0.00188235
0.00640197
-0.00183972
0.00658489
-0.00178148
0.00675672
-0.00170773
0.00691667
-0.00162466
0.00706428
-0.00153189
0.00719937
-0.00143647
0.00732204
-0.00133622
0.00743268
-0.00123958
0.0075317
-0.00114039
0.00761999
-0.00105088
0.00769795
-0.000957611
0.00776692
-0.000880517
0.00782703
-0.000795016
0.00788015
-0.000733406
0.00792578
-0.000654852
0.00796629
-0.000610337
0.00800079
-0.000537408
0.00803185
-0.000511102
0.00805894
-0.000444438
0.00808376
-0.000433986
-0.000373763
0.00393696
-0.000104156
0.00396017
-0.000134952
0.00399261
-0.0001669
0.00403177
-0.000200168
0.00407726
-0.000236467
0.00412957
-0.000277527
0.00418899
-0.00032406
0.00425547
-0.000376174
0.00432893
-0.000434324
0.00440951
-0.000499402
0.00449734
-0.000572278
0.00459253
-0.000653446
0.00469514
-0.000743126
0.00480519
-0.00084133
0.00492269
-0.000947753
0.00504761
-0.00106156
0.00517983
-0.0011814
0.00531908
-0.00130523
0.00546508
-0.00143024
0.0056171
-0.00155329
0.00577421
-0.00167089
0.00593526
-0.00177899
0.00609895
-0.00187414
0.0062638
-0.0019527
0.00642838
-0.00201246
0.00659113
-0.00205062
0.00675061
-0.00206682
0.00690536
-0.00205953
0.0070541
-0.00203108
0.00719567
-0.0019813
0.00732913
-0.00191493
0.00745377
-0.00183237
0.007569
-0.00173989
0.00767461
-0.00163749
0.00777037
-0.00153223
0.00785647
-0.00142232
0.00793304
-0.00131615
0.00800054
-0.00120788
0.00805939
-0.00110974
0.00811017
-0.00100839
0.00815359
-0.000923941
0.00819013
-0.000831555
0.00822088
-0.000764155
0.00824597
-0.000679944
0.00826662
-0.000630979
0.00828316
-0.000553952
0.00829637
-0.000524315
0.00830781
-0.000455876
0.00831669
-0.000442863
-0.000382335
0.0055998
-9.47507e-05
0.00560073
-0.000135883
0.0056111
-0.000177272
0.00562876
-0.000217825
0.00565318
-0.000260888
0.00568487
-0.000309223
0.00572403
-0.000363216
0.00577031
-0.000422459
0.00582339
-0.000487398
0.00588312
-0.000559139
0.0059494
-0.000638558
0.00602199
-0.000726035
0.00610059
-0.000821723
0.00618487
-0.000925613
0.00627449
-0.00103737
0.00636902
-0.00115609
0.006468
-0.00128038
0.00657094
-0.00140817
0.00667748
-0.00153678
0.00678703
-0.00166285
0.00689882
-0.00178268
0.00701196
-0.00189213
0.00712549
-0.00198767
0.00723845
-0.00206566
0.00734998
-0.00212399
0.00745926
-0.0021599
0.00756551
-0.00217308
0.00766802
-0.00216203
0.0077661
-0.00212916
0.00785919
-0.0020744
0.00794673
-0.00200246
0.00802837
-0.00191402
0.00810365
-0.00181517
0.00817248
-0.00170632
0.00823452
-0.00159426
0.00828992
-0.00147772
0.00833851
-0.00136474
0.00838067
-0.00125004
0.00841639
-0.00114547
0.00844625
-0.00103824
0.0084704
-0.000948092
0.00848946
-0.000850619
0.00850389
-0.000778579
0.0085142
-0.000690255
0.00852067
-0.000637446
0.00852448
-0.000557772
0.00852508
-0.00052491
0.00852544
-0.00045624
0.00852311
-0.000440526
-0.000380968
0.00723712
-6.08235e-05
0.0072123
-0.000111068
0.0071957
-0.000160674
0.00718578
-0.000207898
0.00718256
-0.000257671
0.00718664
-0.000313304
0.00719794
-0.000374515
0.0072159
-0.000440419
0.00724011
-0.000511606
0.00727036
-0.000589388
0.00730635
-0.000674548
0.0073476
-0.000767292
0.0073936
-0.000867716
0.00744378
-0.000975799
0.00749758
-0.00109116
0.00755436
-0.00121287
0.00761348
-0.00133951
0.00767432
-0.001469
0.00773632
-0.00159878
0.00779902
-0.00172555
0.00786211
-0.00184577
0.00792507
-0.00195509
0.00798737
-0.00204996
0.00804853
-0.00212682
0.00810827
-0.00218372
0.00816636
-0.00221799
0.00822265
-0.00222936
0.00827701
-0.00221639
0.00832922
-0.00218137
0.00837917
-0.00212436
0.00842656
-0.00204985
0.00847125
-0.00195871
0.00851281
-0.00185673
0.00855117
-0.00174468
0.00858582
-0.00162892
0.00861682
-0.00150872
0.00864368
-0.00139161
0.00866666
-0.00127302
0.00868535
-0.00116416
0.00870023
-0.00105312
0.00871101
-0.000958872
0.00871829
-0.000857902
0.00872206
-0.000782347
0.00872299
-0.000691188
0.00872071
-0.000635162
0.00871684
-0.000553904
0.00870994
-0.000518011
0.0087038
-0.000450096
0.00869502
-0.000431744
-0.000373736
0.00871099
-5.49482e-06
0.00866205
-6.21309e-05
0.00861911
-0.000117732
0.00858142
-0.000170208
0.00854999
-0.000226239
0.00852542
-0.000288736
0.00850721
-0.000356304
0.00849462
-0.000427828
0.00848731
-0.000504299
0.00848509
-0.000587172
0.00848755
-0.000677007
0.00849409
-0.000773829
0.00850409
-0.000877717
0.00851693
-0.00098864
0.00853194
-0.00110617
0.00854843
-0.00122936
0.00856574
-0.00135681
0.00858325
-0.00148652
0.00860048
-0.00161601
0.00861705
-0.00174213
0.00863284
-0.00186156
0.00864797
-0.00197022
0.00866241
-0.0020644
0.00867616
-0.00214057
0.00868939
-0.00219695
0.00870238
-0.00223098
0.0087154
-0.00224239
0.00872876
-0.00222974
0.00874255
-0.00219517
0.00875694
-0.00213875
0.00877175
-0.00206465
0.00878692
-0.00197389
0.008802
-0.0018718
0.00881682
-0.00175951
0.00883074
-0.00164284
0.00884365
-0.00152163
0.00885483
-0.00140278
0.00886434
-0.00128253
0.00887149
-0.00117132
0.00887661
-0.00105823
0.00887911
-0.000961371
0.00887946
-0.000858255
0.00887736
-0.00078025
0.00887347
-0.000687292
0.00886702
-0.000628712
0.00885975
-0.00054664
0.00884978
-0.000508035
0.00884112
-0.000441438
0.00883009
-0.000420713
-0.000364366
0.0098718
7.18547e-05
0.00981072
-1.04981e-06
0.00974939
-5.64067e-05
0.00969123
-0.000112051
0.00963812
-0.00017312
0.00959062
-0.00024124
0.00954794
-0.000313626
0.00950937
-0.000389261
0.00947475
-0.000469678
0.00944391
-0.00055633
0.00941637
-0.000649462
0.00939152
-0.000748978
0.00936879
-0.000854987
0.00934758
-0.000967439
0.00932728
-0.00108586
0.00930723
-0.00120932
0.00928688
-0.00133646
0.00926576
-0.0014654
0.00924355
-0.00159379
0.00922011
-0.00171869
0.00919547
-0.00183692
0.00917011
-0.00194486
0.00914459
-0.00203888
0.00911938
-0.00211536
0.009095
-0.00217257
0.00907207
-0.00220805
0.00905114
-0.00222146
0.00903279
-0.00221139
0.0090173
-0.00217967
0.00900495
-0.00212639
0.00899559
-0.00205529
0.00898919
-0.00196749
0.00898521
-0.00186783
0.00898341
-0.00175771
0.008983
-0.00164242
0.0089837
-0.00152233
0.00898464
-0.00140372
0.00898571
-0.0012836
0.00898603
-0.00117164
0.00898574
-0.00105795
0.00898411
-0.000959743
0.00898143
-0.000855566
0.00897725
-0.000776079
0.0089721
-0.000682135
0.00896506
-0.000621677
0.00895776
-0.000539337
0.00894818
-0.000498454
0.00894019
-0.000433454
0.00893026
-0.000410775
-0.000355947
0.0106368
0.000146002
0.010565
7.06549e-05
0.0104998
8.8799e-06
0.0104339
-4.62197e-05
0.010371
-0.00011021
0.0103115
-0.00018173
0.0102546
-0.000256713
0.0101999
-0.000334576
0.0101475
-0.000417294
0.0100973
-0.000506099
0.0100487
-0.000600903
0.0100013
-0.000701586
0.00995466
-0.000808308
0.0099082
-0.000920979
0.00986144
-0.0010391
0.00981388
-0.00116176
0.00976513
-0.00128772
0.00971493
-0.0014152
0.00966315
-0.00154202
0.00960991
-0.00166544
0.00955552
-0.00178254
0.00950054
-0.00188988
0.00944598
-0.00198431
0.00939271
-0.0020621
0.00934157
-0.00212142
0.00929337
-0.00215986
0.00924885
-0.00217694
0.00920869
-0.00217123
0.00917329
-0.00214427
0.00914296
-0.00209606
0.00911758
-0.00202991
0.00909708
-0.00194699
0.00908088
-0.00185163
0.00906865
-0.00174547
0.00905951
-0.00163328
0.00905309
-0.00151591
0.00904839
-0.00139902
0.00904518
-0.00128038
0.00904247
-0.00116893
0.00904026
-0.00105574
0.00903774
-0.000957227
0.009035
-0.000852825
0.00903161
-0.00077269
0.00902786
-0.000678381
0.00902288
-0.000616698
0.00901802
-0.000534474
0.00901139
-0.000491822
0.00900645
-0.000428523
0.00900008
-0.000404397
-0.000350857
0.0109956
0.000207917
0.0109346
0.000131596
0.0108704
7.3089e-05
0.010809
1.52522e-05
0.0107484
-4.96029e-05
0.0106879
-0.000121279
0.0106278
-0.000196568
0.010568
-0.000274801
0.0105088
-0.000358122
0.0104501
-0.000447366
0.0103914
-0.000542188
0.0103323
-0.000642541
0.0102726
-0.000748615
0.0102119
-0.000860259
0.0101498
-0.000976965
0.0100859
-0.0010979
0.0100201
-0.00122192
0.00995229
-0.00134737
0.00988254
-0.00147226
0.00981113
-0.00159403
0.00973863
-0.00171004
0.00966575
-0.001817
0.00959361
-0.00191217
0.0095234
-0.00199189
0.00945616
-0.00205419
0.00939289
-0.00209659
0.00933439
-0.00211844
0.00928143
-0.00211827
0.00923445
-0.00209728
0.00919379
-0.0020554
0.00915935
-0.00199548
0.00913104
-0.00191868
0.00910828
-0.00182888
0.0090907
-0.00172789
0.00907739
-0.00161997
0.0090679
-0.00150642
0.00906121
-0.00139233
0.00905697
-0.00127614
0.00905419
-0.00116615
0.00905269
-0.00105424
0.00905172
-0.000956253
0.00905114
-0.000852251
0.00905062
-0.000772162
0.00905019
-0.00067795
0.00904913
-0.000615646
0.00904847
-0.000533808
0.00904657
-0.000489926
0.00904639
-0.000428336
0.00904528
-0.000403294
-0.000350826
0.0110434
0.00025371
0.010996
0.000178994
0.0109442
0.000124924
0.0108876
7.18279e-05
0.0108382
-2.45138e-07
0.0107846
-6.76845e-05
0.0107291
-0.000141039
0.0106722
-0.00021793
0.0106145
-0.000300429
0.0105558
-0.000388658
0.0104958
-0.000482138
0.0104342
-0.000580956
0.0103709
-0.000685275
0.0103055
-0.000794882
0.0102378
-0.000909295
0.0101677
-0.00102776
0.010095
-0.00114923
0.0100198
-0.00127219
0.00994236
-0.00139483
0.00986309
-0.00151477
0.00978267
-0.00162962
0.00970194
-0.00173626
0.009622
-0.00183224
0.0095442
-0.00191409
0.00946974
-0.00197973
0.00939971
-0.00202656
0.00933498
-0.00205371
0.00927637
-0.00205966
0.00922435
-0.00204527
0.0091793
-0.00201036
0.00914118
-0.00195735
0.0091099
-0.0018874
0.00908492
-0.0018039
0.00906586
-0.00170882
0.00905184
-0.00160595
0.00904236
-0.00149694
0.00903642
-0.0013864
0.0090336
-0.00127331
0.00903293
-0.00116548
0.00903411
-0.00105543
0.00903645
-0.000958589
0.00903964
-0.000855446
0.00904345
-0.000775968
0.0090477
-0.0006822
0.00905186
-0.000619809
0.00905661
-0.000538554
0.00906065
-0.000493973
0.00906638
-0.000434059
0.00907169
-0.000408612
-0.00035706
0.0109001
0.00028637
0.0108647
0.00021449
0.0108248
0.000164746
0.0107818
0.000114894
0.0107346
4.69597e-05
0.0106917
-2.4819e-05
0.010644
-9.33446e-05
0.010594
-0.000167924
0.0105421
-0.000248582
0.0104882