/*--------------------------------*- C++ -*----------------------------------*\
  =========                 |
  \\      /  F ield         | OpenFOAM: The Open Source CFD Toolbox
   \\    /   O peration     | Website:  https://openfoam.org
    \\  /    A nd           | Version:  7
     \\/     M anipulation  |
\*---------------------------------------------------------------------------*/
FoamFile
{
    version     2.0;
    format      ascii;
    class       volVectorField;
    location    "20";
    object      U;
}
// * * * * * * * * * * * * * * * * * * * * * * * * * * * * * * * * * * * * * //

dimensions      [0 1 -1 0 0 0 0];

internalField   nonuniform List<vector> 
6050
(
(-0.16599 0.00383721 3.46565e-20)
(-0.180952 0.00362642 -4.74325e-20)
(-0.194462 0.00343774 2.7682e-20)
(-0.206709 0.00326173 1.44453e-20)
(-0.217818 0.00308722 5.23614e-21)
(-0.227855 0.0029011 -1.69496e-20)
(-0.236833 0.00268898 -9.6288e-21)
(-0.244688 0.00242941 -6.32266e-21)
(-0.25127 0.00209315 2.62415e-20)
(-0.256547 0.00172863 -3.07722e-20)
(-0.260028 0.00116689 -6.52739e-21)
(-0.26204 0.000886141 7.57205e-21)
(-0.261338 0.000217139 -2.12666e-20)
(-0.161997 0.0114068 -1.51075e-19)
(-0.175755 0.0107621 9.22245e-20)
(-0.187861 0.0101811 -7.19516e-20)
(-0.198479 0.00963553 8.63024e-21)
(-0.207703 0.00909242 -4.16013e-20)
(-0.215569 0.00851352 1.50937e-20)
(-0.222069 0.00785747 3.02095e-20)
(-0.227126 0.00706567 5.0404e-20)
(-0.230521 0.0060312 3.02811e-20)
(-0.232392 0.00496404 8.41837e-20)
(-0.231794 0.0031561 7.98357e-21)
(-0.229925 0.0024196 -6.85003e-20)
(-0.223286 9.48897e-06 5.08636e-20)
(-0.154078 0.0186696 1.27533e-20)
(-0.165457 0.0175556 -3.56641e-20)
(-0.174803 0.0165391 7.07552e-20)
(-0.182228 0.0155737 -2.21122e-20)
(-0.187776 0.0146057 2.51162e-20)
(-0.191432 0.0135749 -2.54017e-20)
(-0.193145 0.0124174 -4.84194e-20)
(-0.192844 0.0110602 -5.56403e-20)
(-0.190103 0.00924681 -6.78372e-20)
(-0.18565 0.00759547 -1.3694e-19)
(-0.177111 0.00418308 5.08295e-20)
(-0.168631 0.00336372 4.26309e-20)
(-0.150628 -0.00161391 1.32973e-19)
(-0.142348 0.025432 -1.10127e-20)
(-0.150228 0.0237955 -3.45947e-21)
(-0.155532 0.0222794 -2.04926e-19)
(-0.15831 0.0208203 -9.70004e-20)
(-0.158545 0.0193457 4.53167e-20)
(-0.156161 0.0177783 5.61619e-21)
(-0.151044 0.0160347 4.44152e-20)
(-0.143227 0.0140794 -1.32493e-19)
(-0.131695 0.0113517 5.16942e-20)
(-0.118858 0.0093449 7.53255e-20)
(-0.0985967 0.00398011 8.69918e-20)
(-0.0823156 0.003354 -4.64711e-20)
(-0.0478648 -0.00429883 -1.07527e-19)
(-0.126944 0.031515 -8.43354e-21)
(-0.130258 0.0292927 -3.07483e-21)
(-0.130316 0.0272031 4.18176e-20)
(-0.127104 0.0251673 6.11526e-20)
(-0.12054 0.0230959 -1.65277e-19)
(-0.110493 0.020902 2.00081e-19)
(-0.0967433 0.0184816 1.02216e-19)
(-0.0796912 0.0158952 1.57384e-19)
(-0.0569047 0.0121681 -3.97198e-21)
(-0.0345215 0.00975873 -3.72128e-20)
(0.00116525 0.00319529 3.8418e-21)
(0.0252591 0.0013856 -5.59096e-20)
(0.0807421 -0.00689913 -1.00052e-19)
(-0.105694 0.0338875 1.55528e-20)
(-0.0993479 0.031154 4.31083e-20)
(-0.0888619 0.0284675 3.41604e-19)
(-0.0740949 0.0257234 -2.18418e-21)
(-0.0548869 0.0228363 1.19698e-19)
(-0.030811 0.0196971 -2.91542e-19)
(-0.00309215 0.0163374 3.77263e-20)
(0.0332601 0.0119004 -5.89833e-20)
(0.0658268 0.00858697 -4.69077e-20)
(0.120887 0.00194289 4.42844e-20)
(0.150413 -0.00219079 -9.78689e-20)
(0.233955 -0.0091654 9.86268e-20)
(-0.0765596 0.0374548 -2.25723e-19)
(-0.0626245 0.034027 2.64835e-20)
(-0.0435494 0.0306471 -6.99781e-20)
(-0.0191314 0.0271998 1.10022e-19)
(0.0107693 0.023596 -2.95083e-21)
(0.0468779 0.0198129 -1.0117e-19)
(0.086646 0.0155144 2.64382e-19)
(0.139089 0.0109866 -1.02112e-19)
(0.181221 0.00602596 -8.61822e-20)
(0.260609 0.000457691 1.33604e-19)
(0.291664 -0.00604045 4.98459e-20)
(0.408188 -0.0113158 2.16013e-19)
(-0.0426646 0.0399128 6.85877e-19)
(-0.0198308 0.035781 8.77762e-21)
(0.00930488 0.0317236 -4.38796e-19)
(0.0450005 0.0276269 -4.59389e-20)
(0.0873038 0.0233521 -4.24773e-19)
(0.137312 0.0192017 2.00335e-19)
(0.190536 0.013827 -1.48159e-19)
(0.261122 0.0101374 1.54179e-19)
(0.312972 0.00280805 2.14441e-19)
(0.417801 -0.000212203 8.33699e-20)
(0.44963 -0.0090204 -2.32349e-19)
(0.596405 -0.0124081 -2.00685e-19)
(-0.00351105 0.041238 -5.63047e-19)
(0.0297711 0.036461 -1.61494e-19)
(0.0707132 0.031833 1.00858e-19)
(0.119585 0.0272596 1.856e-19)
(0.176223 0.0224952 -5.57405e-20)
(0.24186 0.0184588 2.1651e-19)
(0.310388 0.0120992 1.24654e-20)
(0.398589 0.010046 -2.32523e-19)
(0.462881 0.000789276 1.6271e-20)
(0.586371 0.000515374 -3.24544e-19)
(0.622869 -0.00949114 5.97047e-20)
(0.786902 -0.0106904 -1.2796e-19)
(0.0417931 0.0414914 2.61258e-19)
(0.08741 0.0362348 -2.1537e-19)
(0.142221 0.0312781 3.35018e-19)
(0.206373 0.0265748 3.28117e-19)
(0.27931 0.0217323 4.21543e-19)
(0.36153 0.0182817 -4.01258e-19)
(0.447051 0.0118248 3.71459e-20)
(0.548776 0.0111788 3.421e-19)
(0.628725 0.00199971 -1.21288e-19)
(0.757072 0.00350305 1.91292e-21)
(0.803264 -0.00638751 -1.36496e-20)
(0.963375 -0.00530749 1.61322e-19)
(0.0945865 0.0408592 -2.86789e-19)
(0.15478 0.0354456 -4.56955e-20)
(0.22572 0.0305912 -1.45379e-19)
(0.307107 0.0262991 -9.6432e-20)
(0.397624 0.022087 -2.27232e-19)
(0.495982 0.0195399 -1.13462e-19)
(0.597703 0.0144255 4.32064e-20)
(0.706749 0.0144685 -2.20775e-19)
(0.800358 0.00726859 2.40209e-20)
(0.918827 0.00941559 1.4038e-20)
(0.974398 0.00040559 -1.64094e-19)
(1.10886 0.00301505 1.08339e-19)
(0.233824 0.0346635 -1.49886e-19)
(0.322928 0.0305634 4.6818e-19)
(0.42262 0.0273805 -5.26992e-19)
(0.530115 0.0246603 -4.7327e-19)
(0.642049 0.023352 6.55447e-19)
(0.75449 0.0204889 -1.41709e-19)
(0.86404 0.0209094 6.87602e-20)
(0.96135 0.016075 9.90896e-20)
(1.0598 0.0178878 -8.81579e-20)
(1.11654 0.00976969 2.40203e-19)
(1.21155 0.0121176 3.01133e-19)
(0.326228 0.0347057 2.37229e-19)
(0.434486 0.0321946 -2.66911e-19)
(0.551548 0.0308762 -1.13564e-19)
(0.672421 0.0303025 3.70253e-19)
(0.792226 0.0305317 -4.8037e-19)
(0.905865 0.0297698 -2.66786e-20)
(1.0081 0.0303701 1.9609e-19)
(1.09563 0.0268942 -7.81692e-20)
(1.16955 0.0275506 -1.02276e-19)
(1.21624 0.0195287 1.28907e-20)
(1.27133 0.0201505 -1.36436e-19)
(0.432573 0.0365735 -4.95996e-19)
(0.558819 0.0364991 2.92637e-19)
(0.689183 0.0375993 1.67512e-19)
(0.816489 0.0393094 -2.16529e-19)
(0.935179 0.0408578 3.40483e-19)
(1.0394 0.0412864 2.63354e-19)
(1.12601 0.0413369 -6.76666e-20)
(1.19387 0.0378176 2.34525e-21)
(1.24312 0.0366355 -1.04832e-20)
(1.27351 0.0278028 -3.33723e-19)
(1.29852 0.0264082 -4.67163e-19)
(0.551309 0.0412512 2.01173e-19)
(0.691201 0.0441597 -1.67868e-19)
(0.827361 0.0476856 1.18654e-19)
(0.951645 0.0511101 1.01615e-19)
(1.05907 0.0530445 -7.71408e-20)
(1.14526 0.0534074 1.84652e-19)
(1.21062 0.0518324 -2.03682e-19)
(1.25591 0.0473463 2.43066e-19)
(1.28414 0.0439022 4.76341e-19)
(1.29951 0.0340515 2.36632e-19)
(1.30682 0.0311554 3.75466e-19)
(0.823819 0.0551489 2.23155e-20)
(0.956 0.0603666 6.57828e-20)
(1.06753 0.0642753 -1.12177e-19)
(1.15575 0.0653371 -2.83656e-19)
(1.21969 0.064453 -4.95369e-21)
(1.26324 0.0605382 3.43743e-19)
(1.289 0.0549103 -2.89008e-19)
(1.30238 0.049162 -6.62257e-19)
(1.30774 0.0388287 -4.9525e-19)
(1.30639 0.0349827 1.87199e-19)
(0.947348 0.0685762 -4.87349e-19)
(1.06598 0.0741552 3.69994e-19)
(1.15763 0.0770901 4.81233e-20)
(1.2233 0.0762782 1.26413e-19)
(1.26576 0.0734594 -2.76825e-19)
(1.29124 0.0672216 -7.98729e-20)
(1.30313 0.0607705 -7.51831e-20)
(1.30777 0.0529259 7.90872e-20)
(1.30745 0.0429479 2.8971e-19)
(1.30246 0.0381892 -6.21412e-19)
(1.152 0.0874333 -1.74055e-19)
(1.22108 0.0882903 4.78315e-20)
(1.26547 0.0852123 -2.71916e-19)
(1.2906 0.0803773 -2.29047e-20)
(1.30329 0.0723808 5.55988e-20)
(1.30667 0.0654562 -4.07625e-20)
(1.30674 0.0558181 5.59144e-19)
(1.30326 0.0469838 1.08333e-20)
(1.29729 0.0407953 5.83943e-19)
(1.21367 0.099078 -6.5867e-20)
(1.26159 0.0974169 -2.31954e-19)
(1.28879 0.0922333 -4.18138e-19)
(1.30162 0.085693 -1.17146e-20)
(1.3062 0.0766457 -1.91416e-19)
(1.30484 0.0693421 1.65195e-19)
(1.30261 0.0583891 -8.37209e-20)
(1.29722 0.0512663 -6.48863e-19)
(1.29182 0.0425929 -2.56197e-19)
(1.2849 0.104652 3.4648e-19)
(1.29962 0.0977879 5.28245e-19)
(1.30447 0.0899838 -8.90438e-20)
(1.30425 0.0804341 1.28291e-19)
(1.30045 0.0726481 -4.75575e-20)
(1.29702 0.0611841 2.93089e-19)
(1.29038 0.0556691 1.44688e-19)
(1.28634 0.043195 1.66704e-19)
(1.29646 0.110445 3.44812e-20)
(1.30278 0.102353 1.46161e-19)
(1.30278 0.0936986 -2.76003e-20)
(1.29987 0.0839294 2.59758e-19)
(1.29493 0.0756359 2.7983e-20)
(1.2908 0.0645295 -6.799e-19)
(1.28361 0.0592881 3.06043e-19)
(1.28062 0.042267 -2.84245e-19)
(1.3015 0.106317 -5.66285e-20)
(1.29869 0.0971158 -6.11972e-20)
(1.29434 0.0872277 -4.45817e-20)
(1.28891 0.0786188 2.63594e-19)
(1.2843 0.0680724 2.00453e-19)
(1.27732 0.061138 6.42972e-20)
(1.2743 0.0496912 1.78001e-19)
(1.29775 0.109936 -5.97903e-20)
(1.29338 0.10037 -2.34326e-20)
(1.2883 0.0904319 2.14605e-19)
(1.28268 0.0816869 -1.13069e-19)
(1.27781 0.0710276 -1.32313e-19)
(1.27103 0.0650884 -3.03065e-19)
(1.26795 0.0523005 -2.05132e-19)
(1.28747 0.103549 1.21766e-20)
(1.28202 0.0936192 -2.77068e-19)
(1.27636 0.0845775 6.82114e-20)
(1.27132 0.0744918 -1.3552e-19)
(1.26481 0.0675905 -5.14272e-19)
(1.2619 0.0560105 2.69496e-19)
(1.27563 0.0967236 1.50114e-19)
(1.26999 0.0875935 -3.64854e-20)
(1.26486 0.0774699 4.50118e-19)
(1.25869 0.0706533 4.33811e-19)
(1.25565 0.0591911 1.81098e-19)
(1.26358 0.0904541 -8.65992e-21)
(1.25842 0.0806009 -3.07492e-19)
(1.25255 0.0732824 -1.1839e-19)
(1.24947 0.0620998 -1.73146e-19)
(1.25197 0.0834971 -2.14828e-20)
(1.24641 0.0759063 2.83433e-19)
(1.24317 0.0649694 3.10371e-19)
(1.24019 0.0783916 -1.67457e-19)
(1.23682 0.0675904 -6.407e-20)
(1.24019 -0.0783919 -5.92926e-20)
(1.23682 -0.0675906 -4.34491e-19)
(1.25197 -0.0834974 1.39305e-19)
(1.24641 -0.0759066 3.07627e-19)
(1.24317 -0.0649697 1.66278e-19)
(1.26358 -0.0904544 1.78176e-19)
(1.25842 -0.0806012 -1.48972e-19)
(1.25255 -0.0732827 -2.48843e-19)
(1.24947 -0.0621001 4.11117e-20)
(1.27563 -0.0967239 -3.84302e-19)
(1.26999 -0.0875939 -5.7916e-21)
(1.26486 -0.0774702 5.05836e-19)
(1.25869 -0.0706537 2.07481e-19)
(1.25565 -0.0591914 1.77053e-19)
(1.28747 -0.103549 -9.47699e-20)
(1.28202 -0.0936195 5.89898e-20)
(1.27636 -0.0845779 -5.45179e-20)
(1.27132 -0.0744922 5.65027e-20)
(1.26481 -0.0675909 -3.17907e-19)
(1.2619 -0.0560109 1.81956e-19)
(1.29775 -0.109936 7.59431e-21)
(1.29338 -0.10037 1.74454e-19)
(1.2883 -0.0904323 8.27238e-20)
(1.28268 -0.0816874 -2.05178e-19)
(1.27781 -0.0710281 -4.13177e-20)
(1.27103 -0.0650888 -2.00883e-20)
(1.26795 -0.0523009 -3.20787e-19)
(1.3015 -0.106317 -2.24781e-20)
(1.29869 -0.0971161 1.18218e-20)
(1.29434 -0.0872281 -1.12349e-19)
(1.28891 -0.0786193 1.04097e-19)
(1.2843 -0.0680729 7.90229e-20)
(1.27732 -0.0611385 -7.01472e-21)
(1.2743 -0.0496917 2.49617e-19)
(1.29646 -0.110445 -2.0682e-19)
(1.30278 -0.102354 -3.23637e-19)
(1.30278 -0.093699 2.59156e-19)
(1.29987 -0.0839299 1.70106e-19)
(1.29493 -0.0756365 -7.66291e-20)
(1.2908 -0.06453 -6.33439e-19)
(1.28361 -0.0592887 6.32964e-20)
(1.28062 -0.0422675 3.60759e-20)
(1.2849 -0.104653 4.05132e-19)
(1.29962 -0.0977882 4.28735e-19)
(1.30447 -0.0899842 -1.41393e-19)
(1.30425 -0.0804346 3.60021e-20)
(1.30045 -0.0726488 1.08109e-19)
(1.29702 -0.0611847 1.01097e-19)
(1.29038 -0.0556697 3.0704e-19)
(1.28634 -0.0431955 1.17595e-19)
(1.21367 -0.0990781 -1.1293e-19)
(1.26159 -0.0974172 -1.85751e-19)
(1.28879 -0.0922337 -2.88178e-19)
(1.30162 -0.0856935 6.81669e-20)
(1.3062 -0.0766464 -2.65086e-19)
(1.30484 -0.0693428 -9.51343e-21)
(1.30261 -0.0583898 -2.17697e-19)
(1.29722 -0.051267 -3.01084e-19)
(1.29182 -0.0425935 -1.89281e-19)
(1.152 -0.0874333 7.78249e-20)
(1.22108 -0.0882905 -1.0679e-19)
(1.26547 -0.0852127 -2.3529e-19)
(1.2906 -0.0803779 -1.51514e-19)
(1.30329 -0.0723815 2.27084e-19)
(1.30667 -0.065457 -1.48127e-19)
(1.30674 -0.0558189 6.65227e-19)
(1.30326 -0.0469846 3.4287e-19)
(1.29729 -0.0407961 5.81746e-20)
(0.947347 -0.068576 7.09058e-20)
(1.06598 -0.0741552 -2.8672e-20)
(1.15763 -0.0770903 -1.07656e-19)
(1.2233 -0.0762786 5.37909e-19)
(1.26576 -0.07346 -3.47936e-19)
(1.29124 -0.0672224 -3.24464e-19)
(1.30313 -0.0607714 6.8239e-20)
(1.30777 -0.0529268 6.30437e-20)
(1.30745 -0.0429489 7.67273e-19)
(1.30246 -0.0381901 -7.3358e-19)
(0.823818 -0.0551486 2.52904e-19)
(0.955999 -0.0603665 2.40912e-20)
(1.06753 -0.0642754 -6.59142e-20)
(1.15575 -0.0653375 -2.05897e-19)
(1.21969 -0.0644536 8.35549e-20)
(1.26324 -0.060539 1.62541e-19)
(1.28899 -0.0549113 -2.48878e-19)
(1.30238 -0.0491631 -5.88485e-19)
(1.30774 -0.0388299 -3.30888e-19)
(1.30639 -0.0349837 1.68755e-19)
(0.551308 -0.0412507 9.23452e-19)
(0.6912 -0.0441593 -4.04037e-19)
(0.82736 -0.0476854 2.03268e-20)
(0.951643 -0.0511101 2.92915e-19)
(1.05907 -0.0530449 2.34988e-19)
(1.14526 -0.053408 -1.44387e-19)
(1.21061 -0.0518333 7.06665e-20)
(1.25591 -0.0473474 2.11112e-19)
(1.28414 -0.0439034 1.5474e-19)
(1.29951 -0.0340528 2.97829e-19)
(1.30682 -0.0311566 6.74061e-19)
(0.432572 -0.0365729 -5.69858e-19)
(0.558818 -0.0364986 3.56211e-19)
(0.689181 -0.0375991 2.37405e-19)
(0.816487 -0.0393094 -4.77677e-19)
(0.935178 -0.0408581 6.68178e-19)
(1.0394 -0.041287 -4.46518e-20)
(1.12601 -0.0413378 -1.2524e-19)
(1.19387 -0.0378188 -8.42375e-20)
(1.24312 -0.0366368 -3.28177e-20)
(1.27351 -0.0278043 -4.64247e-20)
(1.29852 -0.0264096 -2.48721e-19)
(0.326227 -0.0347049 2.08505e-19)
(0.434485 -0.032194 -2.5484e-19)
(0.551546 -0.0308758 -1.28549e-19)
(0.672419 -0.0303024 3.87315e-19)
(0.792225 -0.030532 -6.32016e-19)
(0.905863 -0.0297704 -3.39212e-21)
(1.0081 -0.0303711 2.7176e-19)
(1.09563 -0.0268955 -1.71261e-19)
(1.16954 -0.0275521 1.42878e-19)
(1.21624 -0.0195304 -2.94001e-19)
(1.27133 -0.020152 -2.45742e-19)
(0.233823 -0.0346626 1.01113e-19)
(0.322926 -0.0305627 2.76899e-19)
(0.422618 -0.02738 -4.26505e-19)
(0.530113 -0.0246601 -4.48408e-19)
(0.642046 -0.0233521 5.90289e-19)
(0.754488 -0.0204894 -1.34194e-19)
(0.864038 -0.0209104 2.15032e-19)
(0.961347 -0.0160763 1.82829e-19)
(1.0598 -0.0178894 -2.71515e-19)
(1.11654 -0.00977157 2.80463e-19)
(1.21155 -0.0121195 2.23916e-19)
(0.0945857 -0.0408582 4.07283e-19)
(0.154779 -0.0354447 1.21613e-19)
(0.225719 -0.0305904 -5.49782e-19)
(0.307105 -0.0262986 1.05489e-19)
(0.397623 -0.0220867 -3.23324e-19)
(0.49598 -0.01954 -2.71998e-20)
(0.597701 -0.014426 1.4015e-19)
(0.706747 -0.0144694 -2.59371e-19)
(0.800355 -0.00726999 -6.8218e-20)
(0.918825 -0.00941733 -6.73609e-20)
(0.974396 -0.00040766 3.66537e-20)
(1.10886 -0.00301713 -4.94956e-20)
(0.0417923 -0.0414904 2.51716e-19)
(0.0874089 -0.0362338 -1.33294e-19)
(0.14222 -0.0312772 4.87165e-19)
(0.206371 -0.0265741 -5.7549e-20)
(0.279308 -0.021732 4.43173e-19)
(0.361528 -0.0182817 -1.09686e-19)
(0.447049 -0.0118253 8.17872e-20)
(0.548774 -0.0111798 -1.08252e-19)
(0.628722 -0.00200119 1.2398e-19)
(0.75707 -0.00350492 8.01927e-20)
(0.803261 0.0063852 5.63791e-20)
(0.963374 0.00530519 -8.24225e-20)
(-0.00351187 -0.0412369 -6.98249e-19)
(0.0297701 -0.0364599 -8.3409e-20)
(0.0707121 -0.0318321 1.1793e-19)
(0.119583 -0.0272589 1.78295e-19)
(0.176221 -0.0224948 1.95003e-19)
(0.241858 -0.0184588 3.09147e-20)
(0.310386 -0.0120997 -2.29823e-20)
(0.398587 -0.0100471 -3.60811e-19)
(0.462879 -0.000790882 -5.57172e-20)
(0.586368 -0.000517406 7.94143e-20)
(0.622867 0.00948858 -1.57281e-19)
(0.7869 0.0106878 -2.78461e-19)
(-0.0426653 -0.0399117 4.77118e-19)
(-0.0198317 -0.0357799 -6.52641e-20)
(0.00930385 -0.0317227 -3.39188e-19)
(0.0449993 -0.0276262 -2.61162e-19)
(0.0873025 -0.0233517 -8.79282e-20)
(0.137311 -0.0192018 -9.85274e-20)
(0.190534 -0.0138275 8.03019e-20)
(0.26112 -0.0101385 1.12908e-19)
(0.31297 -0.00280982 1.56649e-19)
(0.417799 0.000209965 -6.65066e-21)
(0.449628 0.00901755 3.07994e-20)
(0.596403 0.0124051 -2.14656e-19)
(-0.0765603 -0.0374537 -2.86805e-19)
(-0.0626253 -0.0340259 1.86094e-19)
(-0.0435503 -0.0306462 -6.78896e-20)
(-0.0191324 -0.0271991 1.34209e-19)
(0.0107682 -0.0235957 -2.78229e-20)
(0.0468767 -0.019813 -3.62404e-20)
(0.0866446 -0.015515 1.17123e-19)
(0.139087 -0.0109879 -1.06994e-19)
(0.181219 -0.00602791 1.03895e-19)
(0.260607 -0.000460175 1.13303e-20)
(0.291662 0.00603728 8.51969e-20)
(0.408186 0.0113124 4.18599e-19)
(-0.105694 -0.0338864 5.87627e-20)
(-0.0993485 -0.0311529 1.12641e-19)
(-0.0888626 -0.0284665 2.64543e-19)
(-0.0740957 -0.0257228 -8.02229e-20)
(-0.0548878 -0.022836 9.07947e-20)
(-0.030812 -0.0196973 -1.24127e-19)
(-0.00309325 -0.0163382 -1.24566e-19)
(0.033259 -0.0119018 1.41959e-19)
(0.0658256 -0.00858909 -2.68666e-20)
(0.120886 -0.00194565 -1.76351e-19)
(0.150412 0.00218732 1.25891e-19)
(0.233954 0.00916157 -9.60794e-20)
(-0.126945 -0.0315138 1.99161e-19)
(-0.130258 -0.0292915 -3.0379e-20)
(-0.130317 -0.027202 1.07783e-20)
(-0.127104 -0.0251664 -3.65246e-20)
(-0.120541 -0.0230953 -4.13279e-21)
(-0.110494 -0.0209018 1.62337e-19)
(-0.0967441 -0.0184819 1.81439e-19)
(-0.079692 -0.0158961 2.96432e-20)
(-0.0569055 -0.0121696 8.24687e-20)
(-0.0345223 -0.00976102 -1.59516e-19)
(0.00116446 -0.00319831 2.11371e-19)
(0.0252586 -0.00138932 -2.21993e-19)
(0.0807416 0.0068949 -5.91613e-20)
(-0.142348 -0.0254308 2.8461e-20)
(-0.150228 -0.0237943 -5.47826e-20)
(-0.155532 -0.0222783 -9.56266e-20)
(-0.158311 -0.0208194 -1.51445e-19)
(-0.158546 -0.0193451 8.30814e-20)
(-0.156161 -0.0177781 -2.01962e-20)
(-0.151044 -0.016035 1.07367e-19)
(-0.143227 -0.0140804 -1.81186e-19)
(-0.131695 -0.0113534 8.32793e-20)
(-0.118859 -0.00934734 9.35181e-20)
(-0.0985972 -0.00398334 -9.40187e-20)
(-0.0823158 -0.00335794 8.31998e-20)
(-0.047865 0.00429428 -1.35844e-19)
(-0.154078 -0.0186683 -1.11406e-20)
(-0.165458 -0.0175544 -6.4366e-20)
(-0.174803 -0.016538 2.90285e-20)
(-0.182228 -0.0155728 3.21967e-20)
(-0.187777 -0.0146051 5.14954e-20)
(-0.191433 -0.0135748 -6.67573e-20)
(-0.193145 -0.0124178 -3.26071e-20)
(-0.192845 -0.0110612 5.17903e-21)
(-0.190103 -0.00924858 -1.51758e-19)
(-0.185651 -0.00759805 -7.68958e-20)
(-0.177111 -0.00418648 -4.28325e-20)
(-0.168631 -0.00336787 1.41638e-19)
(-0.150628 0.0016091 4.81492e-20)
(-0.161997 -0.0114055 -1.30265e-19)
(-0.175755 -0.0107609 9.02171e-20)
(-0.187861 -0.01018 -7.33901e-20)
(-0.198479 -0.00963465 4.15343e-20)
(-0.207703 -0.00909184 -5.74007e-20)
(-0.215569 -0.00851337 -9.1103e-21)
(-0.222069 -0.00785788 1.70542e-20)
(-0.227126 -0.00706674 6.30241e-20)
(-0.230522 -0.00603304 3.7021e-20)
(-0.232392 -0.00496671 1.02217e-19)
(-0.231794 -0.00315962 -3.20848e-20)
(-0.229925 -0.00242391 -4.39141e-20)
(-0.223286 -1.45067e-05 -6.02123e-22)
(-0.16599 -0.00383593 3.68798e-20)
(-0.180953 -0.0036252 -4.02913e-20)
(-0.194462 -0.00343665 1.55471e-20)
(-0.206709 -0.00326085 3.19497e-20)
(-0.217818 -0.00308665 -1.47166e-20)
(-0.227855 -0.00290097 3.18454e-21)
(-0.236833 -0.00268941 -2.0901e-20)
(-0.244688 -0.00243051 -4.5055e-21)
(-0.25127 -0.00209503 2.144e-20)
(-0.256547 -0.00173135 -1.24674e-20)
(-0.260028 -0.00117047 -1.6267e-20)
(-0.26204 -0.000890532 -7.53474e-21)
(-0.261338 -0.000222248 -2.66428e-20)
(-0.262182 0.000991252 -1.88431e-20)
(-0.263812 0.000772333 8.66551e-21)
(-0.26483 0.000568041 -6.87072e-21)
(-0.26554 0.00035342 1.33464e-20)
(-0.265791 0.00010393 -1.61922e-21)
(-0.265527 -0.000188945 -9.57579e-21)
(-0.264632 -0.000524481 2.86746e-21)
(-0.262976 -0.000906038 6.92245e-22)
(-0.260408 -0.00133714 -2.37386e-21)
(-0.256761 -0.00182049 1.02206e-20)
(-0.251852 -0.00235597 -1.01645e-20)
(-0.24548 -0.00294706 -4.25389e-22)
(-0.237426 -0.00359164 5.82421e-21)
(-0.227464 -0.00428557 -1.18848e-21)
(-0.215369 -0.00502176 -7.91084e-22)
(-0.200919 -0.00578992 2.25801e-21)
(-0.183913 -0.00657547 -3.51229e-21)
(-0.16419 -0.00735621 2.51548e-21)
(-0.141588 -0.00813317 -1.82725e-21)
(-0.116073 -0.00884328 3.45427e-21)
(-0.0876817 -0.00950451 -2.50522e-21)
(-0.0564429 -0.0100937 -1.27636e-21)
(-0.0225485 -0.0105759 -5.274e-22)
(0.0137962 -0.0108903 4.3369e-22)
(0.0522937 -0.0111208 2.41619e-21)
(0.0924839 -0.0112083 -5.34668e-22)
(0.134005 -0.0111609 -3.7338e-22)
(0.176383 -0.0109798 3.41485e-22)
(0.219153 -0.0106857 -1.54116e-22)
(0.261876 -0.0102832 -1.1949e-22)
(0.30404 -0.00980632 8.39024e-23)
(0.345439 -0.00925702 1.07837e-22)
(0.385411 -0.00867816 -2.17806e-23)
(0.424243 -0.00806329 8.13164e-25)
(0.460898 -0.00745918 1.54736e-23)
(0.496444 -0.00684622 -6.95942e-24)
(0.529162 -0.006276 -5.34269e-23)
(0.561208 -0.00570861 1.13666e-23)
(0.58976 -0.00521019 1.65366e-23)
(0.618519 -0.00470625 -1.47835e-23)
(0.642881 -0.00429546 8.52238e-24)
(0.668916 -0.00385619 -7.46848e-24)
(0.689101 -0.00353664 7.66677e-24)
(0.713253 -0.00315302 2.82917e-23)
(0.729149 -0.00292409 1.1577e-24)
(0.752548 -0.00258218 5.30341e-25)
(0.763778 -0.00244156 -2.07246e-24)
(0.787917 -0.00213321 2.64414e-24)
(0.793783 -0.00206671 -2.07167e-24)
(0.820544 -0.00179363 8.85277e-24)
(-0.221066 0.00227664 -4.86764e-20)
(-0.222079 0.00174223 1.87724e-20)
(-0.222141 0.00115178 -3.39513e-20)
(-0.221863 0.000504951 1.47387e-20)
(-0.221148 -0.000252342 1.09212e-20)
(-0.2199 -0.00112123 1.08407e-20)
(-0.218008 -0.00211061 -2.63196e-20)
(-0.215354 -0.00323312 1.77713e-20)
(-0.211795 -0.00449977 -1.81627e-20)
(-0.207172 -0.00592028 -2.57748e-22)
(-0.201319 -0.00749291 1.05491e-20)
(-0.194048 -0.00922986 1.27578e-20)
(-0.185154 -0.0111229 -1.83029e-20)
(-0.17443 -0.0131591 1.22163e-20)
(-0.161665 -0.0153169 5.51507e-21)
(-0.146659 -0.0175655 -8.3629e-21)
(-0.129229 -0.0198625 -4.14119e-21)
(-0.109252 -0.0221433 8.33779e-21)
(-0.0865419 -0.0244697 -3.29867e-21)
(-0.0610959 -0.0265274 -7.05696e-22)
(-0.0330005 -0.0284431 -4.42154e-21)
(-0.00227763 -0.0300995 8.96905e-21)
(0.0309301 -0.031453 -6.62228e-21)
(0.0663394 -0.032404 5.19022e-21)
(0.103661 -0.0330312 -9.88229e-22)
(0.142485 -0.033245 -2.74806e-21)
(0.182445 -0.0330647 3.12066e-21)
(0.223077 -0.0324918 -1.25791e-21)
(0.263956 -0.0315884 1.40061e-22)
(0.304655 -0.0303687 -8.32658e-22)
(0.344713 -0.0289334 1.82356e-22)
(0.38393 -0.0272898 5.3449e-23)
(0.421707 -0.025563 1.01911e-22)
(0.458316 -0.023736 -1.35848e-24)
(0.492803 -0.0219434 8.94644e-23)
(0.52618 -0.0201301 -1.28633e-22)
(0.55685 -0.018444 1.13633e-22)
(0.586845 -0.01677 2.56235e-24)
(0.613533 -0.0153 -1.25071e-22)
(0.640391 -0.0138174 2.86278e-23)
(0.663116 -0.0126086 -3.69221e-24)
(0.687401 -0.0113189 -4.38729e-23)
(0.706201 -0.01038 3.41162e-23)
(0.728735 -0.00925543 3.66646e-23)
(0.743519 -0.00858345 -5.76653e-23)
(0.765386 -0.00758279 1.12483e-23)
(0.775811 -0.0071698 4.54119e-24)
(0.798429 -0.00626976 -1.90832e-24)
(0.803859 -0.00607316 4.557e-24)
(0.828993 -0.00527826 5.45735e-24)
(-0.143622 0.00201903 -6.15693e-20)
(-0.143312 0.00130661 3.97162e-20)
(-0.141826 0.00024411 3.96784e-21)
(-0.139911 -0.000874631 -2.18683e-20)
(-0.137544 -0.00212061 -9.68731e-21)
(-0.134609 -0.00352453 2.97271e-20)
(-0.13102 -0.00511559 -4.06398e-20)
(-0.126674 -0.0069182 9.60959e-21)
(-0.121448 -0.00895523 -2.10211e-21)
(-0.115191 -0.0112502 -6.29973e-21)
(-0.107763 -0.0137663 4.59872e-21)
(-0.0990045 -0.0165453 2.81277e-20)
(-0.0887347 -0.019573 -3.10061e-20)
(-0.0767759 -0.0228268 1.45135e-20)
(-0.0629509 -0.0262716 -5.95742e-21)
(-0.0470933 -0.0298574 7.94379e-21)
(-0.029049 -0.0335219 -7.51626e-21)
(-0.00881537 -0.0371814 7.86879e-21)
(0.0138909 -0.0406945 -3.32693e-21)
(0.0390989 -0.0439885 8.1555e-21)
(0.0665376 -0.046998 -5.21826e-21)
(0.096212 -0.0495585 -1.25412e-20)
(0.127979 -0.0516194 8.26807e-21)
(0.161563 -0.0530985 -4.17193e-22)
(0.196689 -0.0539792 6.96017e-23)
(0.232959 -0.0542014 -3.11696e-21)
(0.270039 -0.0537932 1.49482e-21)
(0.307484 -0.0527565 -1.65795e-21)
(0.344935 -0.0511941 -5.67813e-22)
(0.38199 -0.0491308 9.66727e-22)
(0.41827 -0.0467302 7.48614e-22)
(0.453592 -0.0440078 -8.00412e-22)
(0.487457 -0.0411615 1.36235e-22)
(0.520115 -0.0381696 -1.79705e-23)
(0.550752 -0.0352413 8.30036e-23)
(0.58028 -0.0322945 1.20868e-22)
(0.607315 -0.0295574 2.736e-23)
(0.633665 -0.026851 -7.3917e-23)
(0.657042 -0.0244752 2.49233e-24)
(0.68051 -0.0220908 -1.08223e-22)
(0.700316 -0.020146 1.8993e-22)
(0.721469 -0.0180813 -1.06136e-22)
(0.737788 -0.0165761 -4.23278e-23)
(0.757409 -0.0147823 -4.77461e-23)
(0.770191 -0.0137078 1.01408e-22)
(0.789283 -0.0121183 -1.81586e-24)
(0.798252 -0.0114578 -3.4837e-23)
(0.818095 -0.0100369 -1.65055e-23)
(0.822735 -0.00971862 -2.16555e-23)
(0.844883 -0.00847137 -4.15247e-24)
(-0.036594 -0.00105517 -3.29003e-20)
(-0.0348965 -0.00143547 -2.85862e-20)
(-0.0316808 -0.00278587 5.16492e-20)
(-0.0278302 -0.00433832 6.14545e-20)
(-0.0235477 -0.00600808 -9.33052e-20)
(-0.0187176 -0.00787821 -1.69166e-20)
(-0.0132345 -0.0100028 8.06818e-20)
(-0.00700788 -0.0124085 -7.82006e-20)
(4.80676e-05 -0.015115 1.86637e-20)
(0.00809894 -0.0181263 -3.08897e-21)
(0.0172637 -0.0214603 2.05478e-20)
(0.0276232 -0.0251321 3.00827e-20)
(0.0393418 -0.0291249 -2.90331e-20)
(0.0525585 -0.0334083 -3.25929e-20)
(0.0674087 -0.0379347 6.2191e-20)
(0.0840137 -0.0426361 -1.82747e-20)
(0.102484 -0.0474313 -2.89021e-20)
(0.122855 -0.0522243 4.87264e-20)
(0.145205 -0.0566855 -2.11771e-20)
(0.169584 -0.0609716 5.18641e-21)
(0.195833 -0.0648259 -8.82704e-21)
(0.223831 -0.0680912 2.3831e-21)
(0.253439 -0.07067 -3.91018e-21)
(0.284387 -0.0724559 -2.12565e-21)
(0.316428 -0.0734198 6.3828e-21)
(0.349185 -0.0735049 -8.35357e-22)
(0.382379 -0.072752 5.91957e-22)
(0.415594 -0.0711669 1.0255e-21)
(0.448552 -0.0688914 -7.73157e-22)
(0.48089 -0.0659629 1.19314e-21)
(0.512323 -0.062601 -2.19639e-21)
(0.542692 -0.0588325 4.96307e-22)
(0.571614 -0.054916 -9.38463e-23)
(0.599311 -0.0508316 -1.92524e-23)
(0.625135 -0.0468464 8.45304e-23)
(0.649863 -0.0428621 1.33294e-22)
(0.67238 -0.0391668 -3.84159e-22)
(0.694197 -0.0355337 2.19856e-22)
(0.713462 -0.0323445 -3.593e-22)
(0.732709 -0.0291648 9.644e-23)
(0.748882 -0.0265695 -1.15077e-23)
(0.766114 -0.0238347 2.45764e-22)
(0.779333 -0.0218363 -1.9187e-22)
(0.795277 -0.0194737 1.14426e-22)
(0.805544 -0.0180521 -1.0731e-22)
(0.821095 -0.0159728 -5.47761e-23)
(0.828226 -0.0150983 6.18626e-23)
(0.84449 -0.013258 -9.43927e-24)
(0.848131 -0.0128287 4.26541e-23)
(0.866393 -0.0112287 -2.51255e-23)
(0.0944334 -0.00623609 3.70839e-21)
(0.0978179 -0.00648885 -6.64342e-21)
(0.101912 -0.00786609 5.29947e-20)
(0.107119 -0.00971922 3.18232e-20)
(0.112915 -0.0117632 -5.02583e-20)
(0.119252 -0.0140452 -8.52724e-20)
(0.12625 -0.0166341 6.18946e-20)
(0.134004 -0.0195566 -1.429e-20)
(0.142582 -0.0228238 -4.30136e-20)
(0.152066 -0.0264239 6.25082e-20)
(0.16256 -0.0304275 -3.27674e-20)
(0.174144 -0.0348185 5.37296e-22)
(0.186919 -0.0395781 6.42986e-20)
(0.200977 -0.0446697 -3.34529e-20)
(0.216405 -0.0500353 7.50876e-21)
(0.233277 -0.0555902 -3.85809e-20)
(0.251655 -0.0612288 4.79032e-20)
(0.271547 -0.0668201 -1.32956e-20)
(0.292966 -0.0721429 -3.02646e-20)
(0.31591 -0.0771102 2.32578e-20)
(0.340256 -0.0815365 -2.22936e-20)
(0.365841 -0.0852409 2.78003e-20)
(0.392522 -0.0880992 -2.44205e-20)
(0.420044 -0.0899891 9.00055e-21)
(0.448198 -0.0908696 4.09942e-21)
(0.476647 -0.090683 -8.32885e-22)
(0.505176 -0.0894866 -6.0801e-22)
(0.533421 -0.0872918 2.61131e-22)
(0.561188 -0.0842763 3.94459e-21)
(0.588171 -0.0804912 -3.35486e-22)
(0.614179 -0.0762024 -3.44021e-22)
(0.639086 -0.0714515 -9.31301e-23)
(0.662623 -0.0665429 7.69448e-23)
(0.684975 -0.0614655 -1.40778e-23)
(0.705663 -0.0565262 -9.83037e-23)
(0.725311 -0.0516215 7.09434e-23)
(0.743081 -0.0470791 3.94159e-23)
(0.760155 -0.0426418 -6.5402e-23)
(0.775138 -0.0387451 -2.16244e-22)
(0.789985 -0.0348887 2.7327e-22)
(0.802389 -0.0317365 -2.41742e-22)
(0.815525 -0.0284462 -1.17865e-23)
(0.825523 -0.0260331 -4.87549e-23)
(0.837599 -0.0232115 1.63012e-23)
(0.845241 -0.021501 -5.09747e-23)
(0.857024 -0.0190412 1.45664e-22)
(0.862228 -0.0179865 3.24803e-23)
(0.874627 -0.0158403 4.60506e-24)
(0.877225 -0.0153097 -6.52086e-23)
(0.891241 -0.0134678 -4.35273e-24)
(0.246297 -0.0109789 -2.9024e-20)
(0.250748 -0.0122823 -1.28848e-19)
(0.254858 -0.0140489 1.75438e-21)
(0.260249 -0.0162089 3.20828e-20)
(0.266537 -0.0186224 -8.06256e-21)
(0.273463 -0.0213143 5.44284e-20)
(0.281084 -0.0243391 6.56201e-20)
(0.289489 -0.0277153 -8.64605e-20)
(0.29872 -0.0314563 4.2219e-20)
(0.308814 -0.035578 -4.86043e-20)
(0.319832 -0.0401126 8.11537e-20)
(0.331828 -0.0450595 -2.68935e-20)
(0.344853 -0.0503976 -7.64875e-21)
(0.358948 -0.0560853 -4.97556e-21)
(0.374153 -0.0620579 2.10815e-20)
(0.390489 -0.0682184 2.26596e-20)
(0.40797 -0.0744435 -2.67796e-20)
(0.42657 -0.0805808 -5.30836e-21)
(0.446251 -0.0864224 -2.21478e-20)
(0.466956 -0.0918128 2.50634e-21)
(0.488575 -0.0965631 3.41827e-21)
(0.510932 -0.100474 2.56435e-20)
(0.533889 -0.103404 -1.21863e-20)
(0.557209 -0.105219 -1.4313e-20)
(0.580736 -0.105879 1.72027e-21)
(0.604186 -0.105324 -4.15785e-21)
(0.627421 -0.103628 9.22933e-22)
(0.650148 -0.10081 3.2869e-21)
(0.672262 -0.0970767 3.20237e-21)
(0.693526 -0.0924934 -3.12447e-21)
(0.713845 -0.0873598 -5.82099e-22)
(0.733124 -0.0817348 6.65598e-22)
(0.751205 -0.0759517 5.42197e-22)
(0.768228 -0.0700144 6.10358e-22)
(0.783876 -0.0642514 -9.20366e-23)
(0.798604 -0.0585647 8.33381e-23)
(0.811838 -0.0533014 -1.91313e-22)
(0.824419 -0.0481926 2.46087e-22)
(0.835395 -0.0437014 -1.78196e-22)
(0.846134 -0.0392898 8.05476e-23)
(0.855057 -0.0356732 3.3333e-22)
(0.86439 -0.0319386 -4.30983e-22)
(0.871432 -0.0291854 1.75054e-22)
(0.879906 -0.0260089 6.72309e-23)
(0.885144 -0.0240623 -2.34778e-23)
(0.893378 -0.0213252 -5.52787e-23)
(0.896818 -0.0201192 -1.34024e-22)
(0.905523 -0.0177753 8.72601e-23)
(0.907174 -0.0171507 3.36786e-23)
(0.917083 -0.0151704 -3.36804e-24)
(0.416359 -0.0144851 1.45972e-19)
(0.420407 -0.0171852 2.53834e-20)
(0.423872 -0.0198276 1.07819e-19)
(0.428316 -0.0225041 -1.23956e-19)
(0.43377 -0.0253714 -1.02636e-20)
(0.440004 -0.0285435 7.74784e-20)
(0.447019 -0.0320553 -9.87588e-20)
(0.454872 -0.0358983 -3.10832e-21)
(0.463566 -0.0400843 1.18493e-19)
(0.473096 -0.0446472 -5.52342e-20)
(0.483483 -0.049619 5.18907e-20)
(0.49475 -0.0549989 -9.96493e-20)
(0.506904 -0.0607615 3.20812e-21)
(0.519939 -0.0668619 -2.36532e-20)
(0.533844 -0.0732327 6.68901e-20)
(0.548595 -0.0797714 -3.10243e-20)
(0.564155 -0.0863467 3.70975e-20)
(0.580461 -0.0927937 -2.40897e-20)