/*--------------------------------*- C++ -*----------------------------------*\
  =========                 |
  \\      /  F ield         | OpenFOAM: The Open Source CFD Toolbox
   \\    /   O peration     | Website:  https://openfoam.org
    \\  /    A nd           | Version:  7
     \\/     M anipulation  |
\*---------------------------------------------------------------------------*/
FoamFile
{
    version     2.0;
    format      ascii;
    class       surfaceScalarField;
    location    "5";
    object      phi;
}
// * * * * * * * * * * * * * * * * * * * * * * * * * * * * * * * * * * * * * //

dimensions      [0 3 -1 0 0 0 0];

internalField   nonuniform List<scalar> 
41522
(
-3.5105e-06
3.50996e-06
5.42562e-10
-6.13467e-06
2.62569e-06
-1.52587e-09
-4.44548e-06
-1.6838e-06
-5.39108e-09
4.96075e-06
-9.39519e-06
-1.10356e-08
2.42127e-05
-1.92338e-05
-1.81014e-08
5.56233e-05
-3.13839e-05
-2.66764e-08
0.000101186
-4.55256e-05
-3.67318e-08
0.000163156
-6.19219e-05
-4.83621e-08
0.000243896
-8.06781e-05
-6.16663e-08
0.000346137
-0.000102165
-7.66157e-08
0.000472987
-0.000126756
-9.33667e-08
0.000628108
-0.000155009
-1.11441e-07
0.000815791
-0.000187552
-1.31186e-07
-0.000225278
-1.50887e-07
-3.47522e-06
6.98518e-06
-6.01227e-06
5.16275e-06
-4.18392e-06
-3.51215e-06
5.41588e-06
-1.8995e-05
2.49233e-05
-3.87413e-05
5.66607e-05
-6.31212e-05
0.000102633
-9.14984e-05
0.000165112
-0.000124401
0.000246476
-0.000162042
0.000349475
-0.000205164
0.000477235
-0.000254517
0.000633438
-0.000311213
0.000822395
-0.000376509
-0.000452183
-3.40475e-06
1.03899e-05
-5.76782e-06
7.52582e-06
-3.66157e-06
-5.61841e-06
6.32475e-06
-2.89813e-05
2.63423e-05
-5.87588e-05
5.87318e-05
-9.55108e-05
0.000105524
-0.00013829
0.000169017
-0.000187894
0.000251624
-0.000244648
0.000356131
-0.000309671
0.000485704
-0.000384089
0.000644063
-0.000469572
0.000835554
-0.000568
-0.000682022
-3.29934e-06
1.36893e-05
-5.40212e-06
9.6286e-06
-2.88011e-06
-8.14042e-06
7.68435e-06
-3.95458e-05
2.84647e-05
-7.95391e-05
6.18292e-05
-0.000128875
0.000109845
-0.000186306
0.000174853
-0.000252903
0.000259316
-0.00032911
0.000366072
-0.000416427
0.000498345
-0.000516362
0.00065991
-0.000631137
0.000855164
-0.000763254
-0.000916211
-3.15936e-06
1.68486e-05
-4.91635e-06
1.13856e-05
-1.84204e-06
-1.12147e-05
9.49022e-06
-5.0878e-05
3.12831e-05
-0.000101332
6.59413e-05
-0.000163533
0.00011558
-0.000235945
0.000182596
-0.000319919
0.000269513
-0.000416028
0.000379242
-0.000526157
0.000515079
-0.000652199
0.000680869
-0.000796927
0.000881074
-0.000963458
-0.00115611
-2.98528e-06
1.98339e-05
-4.31205e-06
1.27124e-05
-5.50496e-07
-1.49763e-05
1.17364e-05
-6.3165e-05
3.4788e-05
-0.000124384
7.10531e-05
-0.000199798
0.000122706
-0.000287597
0.00019221
-0.000389423
0.000282168
-0.000505986
0.000395572
-0.000639562
0.000535807
-0.000792433
0.0007068
-0.00096792
0.000913083
-0.00116974
-0.00140299
-2.77768e-06
2.26116e-05
-3.59117e-06
1.35259e-05
9.89903e-07
-1.95574e-05
1.44156e-05
-7.65907e-05
3.89674e-05
-0.000148935
7.71459e-05
-0.000237977
0.000131194
-0.000341645
0.000203655
-0.000461883
0.000297219
-0.00059955
0.000414975
-0.000757318
0.000560404
-0.000937862
0.000737526
-0.00114504
0.000950949
-0.00138316
-0.00165806
-2.53727e-06
2.51489e-05
-2.75597e-06
1.37446e-05
2.77458e-06
-2.50879e-05
1.75192e-05
-9.13353e-05
4.3807e-05
-0.000175223
8.41978e-05
-0.000278368
0.000141012
-0.00039846
0.000216881
-0.000537752
0.000314594
-0.000697263
0.000437346
-0.00088007
0.000588724
-0.00108924
0.000772841
-0.00132916
0.000994383
-0.0016047
-0.00192238
-2.26485e-06
2.74137e-05
-1.80907e-06
1.32888e-05
4.79809e-06
-3.16951e-05
2.10372e-05
-0.000107574
4.92906e-05
-0.000203477
9.21833e-05
-0.000321261
0.000152122
-0.000458398
0.000231832
-0.000617462
0.000334213
-0.000799644
0.00046257
-0.00100843
0.000620599
-0.00124727
0.000812512
-0.00152107
0.00104306
-0.00183525
-0.00219692
-1.9613e-06
2.9375e-05
-7.53381e-07
1.20809e-05
7.05407e-06
-3.95025e-05
2.49583e-05
-0.000125479
5.53997e-05
-0.000233918
0.000101074
-0.000366935
0.00016448
-0.000521804
0.000248445
-0.000701428
0.000355983
-0.000907182
0.000490513
-0.00114296
0.000655844
-0.0014126
0.000856277
-0.00172151
0.00109662
-0.00207559
0.00138221
-0.00248251
-0.00294923
-1.62758e-06
3.10026e-05
4.0781e-07
1.00455e-05
9.53562e-06
-4.86303e-05
2.92702e-05
-0.000145213
6.21143e-05
-0.000266762
0.000110838
-0.000415659
0.000178039
-0.000589004
0.000266651
-0.00079004
0.000379803
-0.00102033
0.000521032
-0.00128419
0.000694255
-0.00158582
0.000903852
-0.0019311
0.00115467
-0.00232641
0.00145199
-0.00277983
-0.00329876
-1.26473e-06
3.22673e-05
1.6711e-06
7.10963e-06
1.22352e-05
-5.91944e-05
3.39595e-05
-0.000166937
6.94123e-05
-0.000302215
0.000121442
-0.000467689
0.000192747
-0.000660309
0.000286372
-0.000883665
0.000405564
-0.00113953
0.000553972
-0.00143259
0.000735612
-0.00176746
0.000954932
-0.00215042
0.00121679
-0.00258827
0.00152639
-0.00308943
-0.00366161
-8.73812e-07
3.31411e-05
3.03269e-06
3.20313e-06
1.51448e-05
-7.13066e-05
3.90117e-05
-0.000190804
7.727e-05
-0.000340473
0.000132849
-0.000523267
0.00020855
-0.000736011
0.000307529
-0.000982644
0.000433148
-0.00126515
0.000589164
-0.00158861
0.000779682
-0.00195798
0.00100919
-0.00237993
0.00128255
-0.00286163
0.00160481
-0.00341169
-0.00403808
-4.5581e-07
3.35969e-05
4.48864e-06
-1.74132e-06
1.82559e-05
-8.50738e-05
4.44115e-05
-0.00021696
8.56623e-05
-0.000381724
0.000145019
-0.000582624
0.000225389
-0.00081638
0.000330035
-0.00108729
0.000462432
-0.00139754
0.000626434
-0.00175261
0.000826219
-0.00215777
0.0010663
-0.00262002
0.00135148
-0.00314681
0.00168664
-0.00374686
-0.00442823
-2.14472e-09
3.35991e-05
6.03486e-06
-7.77832e-06
2.15593e-05
-0.000100598
5.01428e-05
-0.000245544
9.45626e-05
-0.000426144
0.000157912
-0.000645973
0.000243201
-0.000901669
0.0003538
-0.00119789
0.000493285
-0.00153703
0.000665598
-0.00192492
0.000874968
-0.00236714
0.0011259
-0.00287095
0.00142311
-0.00344402
0.00177126
-0.00409501
-0.00483199
4.55909e-07
3.31432e-05
7.6667e-06
-1.49891e-05
2.50458e-05
-0.000117977
5.61885e-05
-0.000276686
0.000103943
-0.000473899
0.000171484
-0.000713514
0.000261923
-0.000992108
0.000378729
-0.00131469
0.000525573
-0.00168387
0.000706466
-0.00210582
0.000925664
-0.00258633
0.00118764
-0.00313292
0.00149696
-0.00375334
0.00185804
-0.00445609
-0.00524906
9.46087e-07
3.21971e-05
9.37996e-06
-2.3423e-05
2.87055e-05
-0.000137303
6.25311e-05
-0.000310512
0.000113776
-0.000525143
0.000185691
-0.00078543
0.000281487
-0.0010879
0.000404724
-0.00143793
0.000559156
-0.0018383
0.00074884
-0.0022955
0.000978037
-0.00281553
0.00125114
-0.00340602
0.00157254
-0.00407475
0.00194633
-0.00482987
-0.005679
1.45819e-06
3.07389e-05
1.117e-05
-3.31348e-05
3.25285e-05
-0.000158661
6.91526e-05
-0.000347136
0.00012403
-0.00058002
0.000200486
-0.000861887
0.000301824
-0.00118924
0.000431685
-0.00156779
0.000593889
-0.00200051
0.00079252
-0.00249413
0.00103181
-0.00305482
0.00131603
-0.00369025
0.00164937
-0.00440808
0.0020355
-0.00521601
-0.00612119
1.99062e-06
2.87483e-05
1.30321e-05
-4.41762e-05
3.65045e-05
-0.000182134
7.60344e-05
-0.000386666
0.000134675
-0.000638661
0.000215823
-0.000943035
0.000322864
-0.00129628
0.000459509
-0.00170444
0.000629626
-0.00217063
0.000837303
-0.00270181
0.00108671
-0.00330422
0.00138196
-0.00398549
0.00172695
-0.00475308
0.00212495
-0.005614
-0.00657488
2.54197e-06
2.62063e-05
1.49614e-05
-5.65957e-05
4.0623e-05
-0.000207795
8.31574e-05
-0.0004292
0.00014568
-0.000701183
0.000231652
-0.00102901
0.000344533
-0.00140916
0.00048809
-0.001848
0.000666219
-0.00234875
0.000882981
-0.00291857
0.00114245
-0.00356369
0.00144853
-0.00429158
0.00180481
-0.00510936
0.00221405
-0.00602325
-0.00703915
3.11083e-06
2.30955e-05
1.69532e-05
-7.0438e-05
4.48734e-05
-0.000235716
9.05023e-05
-0.000474829
0.000157013
-0.000767694
0.000247924
-0.00111992
0.000366758
-0.001528
0.000517322
-0.00199856
0.000703517
-0.00253495
0.000929348
-0.0031444
0.00119875
-0.00383309
0.00151538
-0.00460821
0.00188246
-0.00547644
0.00230223
-0.00644302
-0.007513
3.69582e-06
1.93997e-05
1.90025e-05
-8.57447e-05
4.9245e-05
-0.000265958
9.80498e-05
-0.000523634
0.000168643
-0.000838288
0.00026459
-0.00121586
0.000389465
-0.00165287
0.000547098
-0.00215619
0.000741368
-0.00272922
0.000976193
-0.00337923
0.00125533
-0.00411223
0.00158216
-0.00493504
0.00195946
-0.00585373
0.0023889
-0.00687246
-0.00799528
4.29558e-06
1.51041e-05
2.11046e-05
-0.000102554
5.3727e-05
-0.00029858
0.00010578
-0.000575687
0.000180536
-0.000913044
0.000281598
-0.00131693
0.000412579
-0.00178385
0.000577308
-0.00232092
0.00077962
-0.00293153
0.00102331
-0.00362292
0.00131192
-0.00440084
0.00164849
-0.00527161
0.00203534
-0.00624058
0.00247353
-0.00731065
0.00296305
-0.0084848
-0.00975583
4.90877e-06
1.01953e-05
2.32546e-05
-0.0001209
5.83087e-05
-0.000333634
0.000113673
-0.000631052
0.00019266
-0.00099203
0.000298898
-0.00142316
0.000436024
-0.00192098
0.000607844
-0.00249274
0.000818122
-0.00314181
0.0010705
-0.00387529
0.00136825
-0.00469859
0.00171404
-0.00561741
0.00210968
-0.00663622
0.00255561
-0.00775658
0.00305107
-0.00898025
-0.0102974
5.53405e-06
4.66126e-06
2.54478e-05
-0.000140813
6.29792e-05
-0.000371166
0.00012171
-0.000689782
0.000204982
-0.0010753
0.000316439
-0.00153462
0.000459723
-0.00206426
0.000638598
-0.00267162
0.000856722
-0.00335993
0.00111754
-0.00413611
0.00142404
-0.00500509
0.00177847
-0.00597183
0.00218208
-0.00703983
0.00263466
-0.00820916
0.00313472
-0.00948032
-0.0108408
6.17014e-06
-1.50888e-06
2.76792e-05
-0.000162322
6.77277e-05
-0.000411214
0.00012987
-0.000751924
0.000217468
-0.0011629
0.00033417
-0.00165132
0.000483602
-0.0022137
0.000669461
-0.00285747
0.000895271
-0.00358574
0.00116425
-0.00440509
0.00147905
-0.00531988
0.00184144
-0.00633423
0.00225213
-0.00745051
0.00271022
-0.00866726
0.00321352
-0.00998361
-0.0113845
6.81577e-06
-8.32464e-06
2.99443e-05
-0.000185451
7.25437e-05
-0.000453814
0.000138133
-0.000817514
0.000230088
-0.00125486
0.00035204
-0.00177328
0.000507585
-0.00236924
0.000700326
-0.00305021
0.00093362
-0.00381904
0.00121042
-0.0046819
0.001533
-0.00564246
0.00190266
-0.00670388
0.00231946
-0.00786732
0.00278189
-0.00912968
0.00328703
-0.0104888
-0.0119271
7.4697e-06
-1.57943e-05
3.22383e-05
-0.00021022
7.74164e-05
-0.000498992
0.00014648
-0.000886578
0.000242806
-0.00135118
0.000369998
-0.00190047
0.000531597
-0.00253084
0.000731085
-0.0032497
0.000971624
-0.00405957
0.00125587
-0.00496614
0.00158567
-0.00597227
0.00196181
-0.00708002
0.00238375
-0.00828926
0.0028493
-0.00959523
0.00335489
-0.0109943
-0.0124669
8.13075e-06
-2.39251e-05
3.45567e-05
-0.000236645
8.23353e-05
-0.00054677
0.000154892
-0.000959134
0.000255592
-0.00145188
0.000387993
-0.00203287
0.000555562
-0.00269841
0.000761634
-0.00345577
0.00100914
-0.00430708
0.00130039
-0.00525739
0.00163681
-0.00630869
0.00201862
-0.00746183
0.00244466
-0.0087153
0.0029121
-0.0100627
0.00341677
-0.011499
-0.0130026
8.79775e-06
-3.27229e-05
3.6895e-05
-0.000264743
8.72902e-05
-0.000597166
0.000163349
-0.00103519
0.000268412
-0.00155694
0.000405975
-0.00217043
0.000579408
-0.00287184
0.000791867
-0.00366823
0.00104602
-0.00456123
0.00134382
-0.00555519
0.0016862
-0.00665107
0.00207283
-0.00784845
0.00250191
-0.00914438
0.00297002
-0.0105308
0.00347241
-0.0120014
-0.0135329
9.46958e-06
-4.21924e-05
3.92488e-05
-0.000294522
9.22705e-05
-0.000650187
0.000171831
-0.00111475
0.000281234
-0.00166635
0.000423895
-0.00231309
0.000603059
-0.00305101
0.000821683
-0.00388686
0.00108214
-0.00482169
0.00138598
-0.00585903
0.00173363
-0.00699872
0.00212419
-0.00823901
0.00255524
-0.00957543
0.00302278
-0.0109983
0.0035216
-0.0125002
0.0040451
-0.0140564
-0.0156745
1.01451e-05
-5.23376e-05
4.16136e-05
-0.00032599
9.72663e-05
-0.00070584
0.000180319
-0.00119781
0.000294026
-0.00178005
0.000441701
-0.00246077
0.000626446
-0.00323575
0.00085098
-0.00411139
0.00111735
-0.00508806
0.00142669
-0.00616836
0.00177889
-0.00735093
0.00217247
-0.00863258
0.0026044
-0.0100074
0.00307018
-0.0114641
0.00356418
-0.0129942
0.00407974
-0.0145719
-0.0162056
1.08234e-05
-6.3161e-05
4.39854e-05
-0.000359152
0.000102267
-0.000764122
0.000188796
-0.00128433
0.000306757
-0.00189802
0.000459347
-0.00261336
0.000649494
-0.0034259
0.00087966
-0.00434156
0.00115154
-0.00535994
0.00146579
-0.00648261
0.0018218
-0.00770693
0.00221746
-0.00902825
0.00264921
-0.0104391
0.00311205
-0.0119269
0.00360004
-0.0134822
0.00410659
-0.0150785
-0.0167249
1.15033e-05
-7.46643e-05
4.63597e-05
-0.000394009
0.000107264
-0.000825026
0.000197241
-0.00137431
0.000319396
-0.00202017
0.000476782
-0.00277075
0.000672136
-0.00362125
0.000907626
-0.00457705
0.00118457
-0.00563688
0.00150314
-0.00680118
0.00186217
-0.00806596
0.00225899
-0.00942507
0.00268948
-0.0108696
0.00314826
-0.0123857
0.00362913
-0.0139631
0.0041257
-0.0155751
-0.0172314
1.21839e-05
-8.68481e-05
4.87325e-05
-0.000430557
0.000112246
-0.00088854
0.000205636
-0.0014677
0.00033191
-0.00214644
0.00049396
-0.0029328
0.000694301
-0.00382159
0.000934786
-0.00481753
0.00121632
-0.00591842
0.00153858
-0.00712345
0.00189985
-0.00842723
0.00229689
-0.00982212
0.00272508
-0.0112978
0.00317871
-0.0128394
0.00365144
-0.0144358
0.00413716
-0.0160608
-0.0177247
1.28642e-05
-9.97123e-05
5.10998e-05
-0.000468793
0.000117204
-0.000954644
0.000213963
-0.00156446
0.000344269
-0.00227675
0.000510833
-0.00309936
0.000715922
-0.00402668
0.000961046
-0.00506265
0.00124668
-0.00620405
0.00157198
-0.00744875
0.00193468
-0.00878993
0.00233101
-0.0102184
0.00275588
-0.0117227
0.00320334
-0.0132868
0.003667
-0.0148995
0.00414111
-0.0165349
-0.0182042
1.35432e-05
-0.000113256
5.34576e-05
-0.000508707
0.000122128
-0.00102332
0.000222203
-0.00166453
0.000356444
-0.00241099
0.000527354
-0.00327027
0.000736933
-0.00423626
0.00098632
-0.00531204
0.00127553
-0.00649326
0.00160322
-0.00777644
0.00196654
-0.00915325
0.00236123
-0.0106131
0.00278181
-0.0121433
0.00322214
-0.0137271
0.00367588
-0.0153532
0.00413774
-0.0169967
0.00460304
-0.0186695
-0.0203001
1.42201e-05
-0.000127476
5.58018e-05
-0.000550289
0.000127009
-0.00109452
0.000230339
-0.00176786
0.000368403
-0.00254906
0.000543478
-0.00344535
0.000757269
-0.00445005
0.00101052
-0.0055653
0.00130279
-0.00678552
0.00163217
-0.00810582
0.00199531
-0.00951639
0.00238746
-0.0110053
0.00280281
-0.0125586
0.00323512
-0.0141595
0.00367819
-0.0157963
0.00412727
-0.0174458
0.00457813
-0.0191203
-0.0207536
1.48939e-05
-0.00014237
5.81285e-05
-0.000593524
0.000131838
-0.00116823
0.000238352
-0.00187438
0.000380117
-0.00269082
0.00055916
-0.00362439
0.000776868
-0.00466776
0.00103357
-0.005822
0.00132833
-0.00708028
0.00165873
-0.00843623
0.00202088
-0.00987854
0.00240961
-0.011394
0.00281885
-0.0129679
0.00324232
-0.0145829
0.00367407
-0.016228
0.00410993
-0.0178817
0.00454621
-0.0195566
-0.0211927
1.55638e-05
-0.000157933
6.04339e-05
-0.000638394
0.000136604
-0.0012444
0.000246225
-0.001984
0.000391556
-0.00283615
0.000574356
-0.00380719
0.000795668
-0.00488907
0.00105539
-0.00608172
0.00135209
-0.00737698
0.00168281
-0.00876695
0.00204318
-0.0102389
0.00242764
-0.0117785
0.00282992
-0.0133701
0.00324383
-0.0149968
0.00366369
-0.0166479
0.00408599
-0.018304
0.00450763
-0.0199782
-0.0216178
1.6232e-05
-0.000174165
6.27207e-05
-0.000684882
0.000141309
-0.00132299
0.000253952
-0.00209664
0.000402707
-0.00298491
0.000589038
-0.00399352
0.000813626
-0.00511366
0.00107592
-0.00634401
0.00137397
-0.00767503
0.00170432
-0.0090973
0.00206213
-0.0105967
0.0024415
-0.0121578
0.00283605
-0.0137647
0.00323972
-0.0154005
0.00364721
-0.0170554
0.0040557
-0.0187125
0.00446271
-0.0203852
0.00487372
-0.0220288
-0.023757
1.68915e-05
-0.000191057
6.49721e-05
-0.000732963
0.000145923
-0.00140394
0.000261492
-0.00221221
0.000413511
-0.00313693
0.000603133
-0.00418314
0.000830654
-0.00534118
0.00109506
-0.00660842
0.00139389
-0.00797387
0.00172318
-0.00942659
0.00207767
-0.0109512
0.00245119
-0.0125314
0.0028373
-0.0141508
0.00323015
-0.0157934
0.0036249
-0.0174501
0.00401941
-0.019107
0.00441191
-0.0207777
0.00480897
-0.0224258
-0.0241503
1.75444e-05
-0.000208601
6.71906e-05
-0.000782609
0.000150448
-0.0014872
0.000268839
-0.0023306
0.000423956
-0.00329204
0.000616615
-0.0043758
0.000846714
-0.00557128
0.00111275
-0.00687446
0.00141178
-0.00827289
0.00173934
-0.00975415
0.00208977
-0.0113016
0.00245671
-0.0128983
0.00283373
-0.0145278
0.00321526
-0.0161749
0.00359696
-0.0178318
0.0039774
-0.0194874
0.00435552
-0.0211559
0.0047387
-0.022809
-0.0245311
1.81898e-05
-0.000226791
6.93723e-05
-0.000833792
0.000154873
-0.0015727
0.000275976
-0.00245171
0.000434012
-0.00345008
0.000629445
-0.00457123
0.000861753
-0.00580359
0.00112895
-0.00714166
0.00142758
-0.00857152
0.00175273
-0.0100793
0.0020984
-0.0116473
0.00245808
-0.013258
0.00282542
-0.0148952
0.0031952
-0.0165447
0.00356363
-0.0182003
0.00392997
-0.0198537
0.00429391
-0.0215198
0.00466332
-0.0231784
-0.0249001
1.88268e-05
-0.000245618
7.15132e-05
-0.000886478
0.000159189
-0.00166037
0.000282886
-0.0025754
0.000443652
-0.00361084
0.000641583
-0.00476916
0.000875722
-0.00603773
0.00114359
-0.00740953
0.00144124
-0.00886917
0.00176333
-0.0104014
0.00210357
-0.0119875
0.00245535
-0.0136098
0.00281249
-0.0152523
0.00317016
-0.0169023
0.00352517
-0.0185553
0.00387743
-0.020206
0.00422739
-0.0218698
0.00458325
-0.0235343
0.00494079
-0.0252577
-0.0269662
1.94544e-05
-0.000265072
7.36095e-05
-0.000940633
0.000163388
-0.00175015
0.000289551
-0.00270157
0.000452851
-0.00377414
0.000652993
-0.0049693
0.000888574
-0.00627331
0.00115662
-0.00767757
0.00145271
-0.00916526
0.0017711
-0.0107198
0.00210527
-0.0123217
0.00244857
-0.0139531
0.00279506
-0.0155988
0.00314034
-0.0172476
0.00348182
-0.0188968
0.00382009
-0.0205443
0.00415631
-0.022206
0.00449882
-0.0238768
0.00484516
-0.025604
-0.0273476
2.00717e-05
-0.000285144
7.56572e-05
-0.000996219
0.00016746
-0.00184196
0.000295955
-0.00283006
0.000461582
-0.00393977
0.000663638
-0.00517136
0.000900266
-0.00650994
0.001168
-0.00794531
0.00146196
-0.00945922
0.00177603
-0.0110339
0.00210352
-0.0126492
0.00243782
-0.0142874
0.00277326
-0.0159342
0.00310593
-0.0175803
0.00343386
-0.0192247
0.00375824
-0.0208686
0.00408095
-0.0225287
0.00441038
-0.0242062
0.00474566
-0.0259393
-0.0277154
0.00511347
2.06778e-05
-0.000305822
7.76524e-05
-0.00105319
0.000171396
-0.0019357
0.000302082
-0.00296075
0.000469819
-0.00410751
0.000673484
-0.00537503
0.000910756
-0.00674721
0.00117768
-0.00821224
0.00146894
-0.00975048
0.00177812
-0.011343
0.00209836
-0.0129694
0.00242319
-0.0146122
0.00274725
-0.0162583
0.00306714
-0.0179002
0.00338153
-0.0195391
0.00369219
-0.0211793
0.00400163
-0.0228381
0.00431821
-0.0245228
0.00464252
-0.0262636
-0.0280702
0.00499735
2.12716e-05
-0.000327094
7.95911e-05
-0.00111151
0.000175187
-0.0020313
0.000307916
-0.00309348
0.000477538
-0.00427713
0.0006825
-0.00557999
0.000920009
-0.00698472
0.00118564
-0.00847786
0.00147365
-0.0100385
0.00177736
-0.0116467
0.00208984
-0.0132819
0.00240477
-0.0149271
0.00271717
-0.0165707
0.00302419
-0.0182072
0.0033251
-0.01984
0.00362221
-0.0214764
0.00391863
-0.0231346
0.00422259
-0.0248268
0.00453597
-0.026577
-0.0284125
0.00487824
2.18523e-05
-0.000348946
8.14692e-05
-0.00117113
0.000178823
-0.00212865
0.000313439
-0.00322809
0.000484716
-0.00444841
0.000690653
-0.00578592
0.00092799
-0.00722206
0.00119183
-0.0087417
0.00147606
-0.0103227
0.00177377
-0.0119444
0.00207801
-0.0135862
0.00238268
-0.0152318
0.00268321
-0.0168712
0.00297729
-0.0185013
0.00326482
-0.0201275
0.00354858
-0.0217602
0.0038322
-0.0234182
0.00412377
-0.0251183
0.00442621
-0.0268794
-0.0287425
0.00475621
2.24186e-05
-0.000371364
8.32827e-05
-0.00123199
0.000182296
-0.00222766
0.000318637
-0.00336443
0.000491328
-0.0046211
0.000697916
-0.00599251
0.000934669
-0.00745881
0.00119624
-0.00900328
0.00147618
-0.0106027
0.00176738
-0.0122356
0.00206294
-0.0138817
0.00235703
-0.0155259
0.00264552
-0.0171597
0.00292666
-0.0187824
0.00320093
-0.0204018
0.00347156
-0.0220308
0.00374261
-0.0236892
0.00402197
-0.0253977
0.00431346
-0.0271709
-0.0290604
0.00463134
2.29696e-05
-0.000394334
8.50274e-05
-0.00129405
0.000185596
-0.00232823
0.000323494
-0.00350233
0.000497354
-0.00479496
0.000704261
-0.00619942
0.000940019
-0.00769457
0.00119885
-0.00926211
0.001474
-0.0108778
0.00175822
-0.0125199
0.00204472
-0.0141682
0.00232795
-0.0158091
0.00260428
-0.017436
0.00287252
-0.0190506
0.00313369
-0.020663
0.00339139
-0.0222885
0.00365008
-0.0239479
0.00391741
-0.025665
0.00419788
-0.0274514
-0.0293662
0.00450372
2.35043e-05
-0.000417838
8.66994e-05
-0.00135725
0.000188714
-0.00243025
0.000327995
-0.00364161
0.000502772
-0.00496973
0.000709665
-0.00640631
0.000944019
-0.00792892
0.00119965
-0.00951774
0.00146953
-0.0111477
0.00174633
-0.0127967
0.00202342
-0.0144453
0.00229558
-0.0160813
0.00255969
-0.0177002
0.00281509
-0.019306
0.00306332
-0.0209112
0.00330832
-0.0225335
0.00355483
-0.0241944
0.00381027
-0.0259205
0.00407966
-0.0277208
-0.02966
0.00437344
2.40214e-05
-0.00044186
8.82945e-05
-0.00142152
0.000191643
-0.00253359
0.000332126
-0.0037821
0.000507562
-0.00514517
0.000714104
-0.00661285
0.000946648
-0.00816146
0.00119863
-0.00976973
0.00146279
-0.0114118
0.00173178
-0.0130656
0.00199913
-0.0147127
0.00226005
-0.0163422
0.0025119
-0.017952
0.00275456
-0.0195487
0.00299004
-0.0211467
0.00322256
-0.022766
0.00345708
-0.0244289
0.00370074
-0.0261641
0.00395893
-0.027979
-0.0299417
0.00424061
2.45198e-05
-0.000466379
8.98085e-05
-0.00148681
0.000194372
-0.00263816
0.000335873
-0.0039236
0.000511707
-0.005321
0.00071756
-0.00681871
0.000947892
-0.0083918
0.00119579
-0.0100176
0.0014538
-0.0116699
0.0017146
-0.0133264
0.00197197
-0.01497
0.00222151
-0.0165917
0.00246111
-0.0181916
0.00269115
-0.0197787
0.00291408
-0.0213696
0.00313432
-0.0229863
0.00335701
-0.0246516
0.00358898
-0.0263961
0.00383587
-0.0282258
-0.0302111
0.00410533
2.49984e-05
-0.000491378
9.12374e-05
-0.00155305
0.000196894
-0.00274381
0.000339221
-0.00406592
0.000515188
-0.00549697
0.000720014
-0.00702353
0.00094774
-0.00861952
0.00119113
-0.010261
0.0014426
-0.0119213
0.00169488
-0.0135787
0.00194204
-0.0152172
0.00218011
-0.0168298
0.0024075
-0.018419
0.00262506
-0.0199963
0.00283563
-0.0215802
0.0030438
-0.0231944
0.0032548
-0.0248626
0.00347515
-0.0266165
0.0037106
-0.0284613
-0.0304682
0.0039677
2.54561e-05
-0.000516834
9.25769e-05
-0.00162017
0.0001992
-0.00285044
0.000342159
-0.00420888
0.000517989
-0.0056728
0.000721451
-0.007227
0.000946186
-0.00884426
0.00118467
-0.0104995
0.00142922
-0.0121659
0.00167268
-0.0138222
0.00190944
-0.0154539
0.00213598
-0.0170563
0.00235123
-0.0186343
0.00255648
-0.0202016
0.00275489
-0.0217786
0.00295119
-0.0233907
0.00315062
-0.0250621
0.00335939
-0.0268252
0.00358325
-0.0286852
-0.0307128
0.00382781
2.58916e-05
-0.000542726
9.38231e-05
-0.0016881
0.000201281
-0.0029579
0.000344673
-0.00435228
0.000520097
-0.00584822
0.00072186
-0.00742876
0.000943225
-0.00906562
0.00117642
-0.0107327
0.0014137
-0.0124031
0.00164808
-0.0140566
0.00187429
-0.0156801
0.00208929
-0.0172713
0.00229248
-0.0188375
0.00248559
-0.0203947
0.00267205
-0.021965
0.00285665
-0.0235753
0.00304463
-0.02525
0.00324183
-0.0270224
0.00345397
-0.0288973
-0.0309446
0.00368579
2.63037e-05
-0.000569029
9.49718e-05
-0.00175677
0.000203131
-0.00306605
0.000346753
-0.0044959
0.000521498
-0.00602297
0.00072123
-0.00762849
0.000938858
-0.00928325
0.0011664
-0.0109602
0.00139609
-0.0126328
0.00162116
-0.0142816
0.00183671
-0.0158957
0.00204017
-0.0174748
0.00223142
-0.0190287
0.00241257
-0.0205758
0.00258727
-0.0221397
0.00276036
-0.0237484
0.00293697
-0.0254267
0.00312261
-0.0272081
0.00332286
-0.0290975
-0.0311635
0.00354174
2.66911e-05
-0.00059572
9.60191e-05
-0.0018261
0.000204741
-0.00317478
0.000348387
-0.00463954
0.00052218
-0.00619676
0.000719555
-0.00782587
0.000933091
-0.00949679
0.00115463
-0.0111818
0.00137645
-0.0128547
0.00159201
-0.0144972
0.00179681
-0.0161005
0.00198877
-0.0176667
0.00216822
-0.0192082
0.00233758
-0.0207452
0.00250073
-0.0223029
0.00266245
-0.0239101
0.00282778
-0.025592
0.00300186
-0.0273821
0.00319005
-0.0292857
-0.0313692
0.00339576
2.70528e-05
-0.000622773
9.69611e-05
-0.001896
0.000206104
-0.00328392
0.000349566
-0.00478301
0.000522135
-0.00636933
0.00071683
-0.00802056
0.000925931
-0.00970589
0.00114115
-0.011397
0.00135483
-0.0130683
0.00156072
-0.0147031
0.00175472
-0.0162945
0.00193523
-0.0178473
0.00210302
-0.0193759
0.0022608
-0.0209029
0.00241258
-0.0224547
0.00256309
-0.0240607
0.0027172
-0.0257461
0.00287968
-0.0275446
0.00305566
-0.0294617
-0.0315615
0.00324799
2.73873e-05
-0.00065016
9.77938e-05
-0.00196641
0.000207213
-0.00339334
0.000350281
-0.00492607
0.000521353
-0.0065404
0.000713053
-0.00821226
0.000917391
-0.00991023
0.00112598
-0.0116056
0.00133129
-0.0132737
0.00152737
-0.0148992
0.00171055
-0.0164777
0.0018797
-0.0180164
0.00203599
-0.0195322
0.00218238
-0.0210493
0.00232297
-0.0225953
0.0024624
-0.0242001
0.00260534
-0.025889
0.0027562
-0.0276955
0.00291981
-0.0296253
-0.0317403
0.00309854
2.76936e-05
-0.000677854
9.85135e-05
-0.00203723
0.000208061
-0.00350289
0.000350522
-0.00506853
0.000519828
-0.00670971
0.000708225
-0.00840066
0.000907486
-0.0101095
0.00110917
-0.0118073
0.0013059
-0.0134704
0.00149206
-0.0150853
0.00166443
-0.0166501
0.00182232
-0.0181743
0.00196726
-0.0196772
0.00210245
-0.0211845
0.00223203
-0.0227248
0.0023605
-0.0243286
0.00249232
-0.0260208
0.00263152
-0.0278347
0.00278262
-0.0297764
-0.0319052
0.00294753
2.79704e-05
-0.000705825
9.91167e-05
-0.00210838
0.000208643
-0.00361241
0.000350283
-0.00521017
0.000517555
-0.00687698
0.00070235
-0.00858545
0.000896235
-0.0103034
0.00109075
-0.0120018
0.00127873
-0.0136584
0.00145488
-0.0152615
0.00161647
-0.0168116
0.00176321
-0.018321
0.00189698
-0.0198109
0.00202116
-0.0213087
0.00213989
-0.0228436
0.00225753
-0.0244462
0.00237826
-0.0261416
0.00250577
-0.0279622
0.0026442
-0.0299148
-0.0320561
0.0027951
2.82165e-05
-0.000734041
9.95997e-05
-0.00217976
0.000208951
-0.00372176
0.000349558
-0.00535078
0.000514532
-0.00704195
0.000695434
-0.00876635
0.00088366
-0.0104916
0.00107078
-0.0121889
0.00124984
-0.0138374
0.00141594
-0.0154276
0.00156678
-0.0169625
0.00170251
-0.0184568
0.00182529
-0.0199337
0.00193864
-0.0214221
0.00204669
-0.0229516
0.00215358
-0.0245531
0.00226326
-0.0262513
0.00237904
-0.028078
0.00250467
-0.0300405
-0.0321928
0.00264137
2.84308e-05
-0.000762472
9.99592e-05
-0.00225129
0.000208982
-0.00383079
0.000348341
-0.00549014
0.000510757
-0.00720437
0.000687485
-0.00894308
0.000869786
-0.0106739
0.00104929
-0.0123684
0.0012193
-0.0140074
0.00137533
-0.0155836
0.00151549
-0.0171027
0.00164034
-0.0185816
0.00175231
-0.0200457
0.00185502
-0.0215248
0.00195252
-0.0230491
0.00204878
-0.0246493
0.00214743
-0.0263499
0.00225144
-0.028182
0.00236416
-0.0301532
-0.0323151
0.0024865
2.86119e-05
-0.000791084
0.000100192
-0.00232287
0.00020873
-0.00393932
0.000346628
-0.00562804
0.000506231
-0.00736397
0.000678515
-0.00911536
0.000854641
-0.01085
0.00102634
-0.0125401
0.0011872
-0.0141683
0.00133313
-0.0157295
0.00146271
-0.0172322
0.00157682
-0.0186957
0.00167816
-0.020147
0.0017704
-0.021617
0.00185751
-0.0231362
0.00194321
-0.024735
0.00203087
-0.0264376
0.00212307
-0.0282742
0.00222278
-0.0302529
-0.032423
0.00233061
2.87589e-05
-0.000819843
0.000100295
-0.00239441
0.00020819
-0.00404722
0.000344416
-0.00576426
0.000500956
-0.00752051
0.000668536
-0.00928295
0.000838256
-0.0110197
0.00100198
-0.0127038
0.0011536
-0.0143199
0.00128946
-0.0158654
0.00140853
-0.0173513
0.00151208
-0.0187993
0.00160297
-0.0202379
0.0016849
-0.0216989
0.00176175
-0.0232131
0.00183699
-0.0248103
0.00191367
-0.0265142
0.00199405
-0.0283546
0.00208066
-0.0303395
-0.0325162
0.00217386
2.88707e-05
-0.000848713
0.000100266
-0.0024658
0.00020736
-0.00415431
0.000341702
-0.00589861
0.000494935
-0.00767375
0.000657566
-0.00944558
0.000820664
-0.0111828
0.000976259
-0.0128594
0.00111859
-0.0144623
0.0012444
-0.0159912
0.00135308
-0.01746
0.00144621
-0.0188924
0.00152683
-0.0203185
0.00159863
-0.0217707
0.00166534
-0.0232798
0.0017302
-0.0248751
0.00179593
-0.02658
0.00186447
-0.0284231
0.00193792
-0.030413
-0.0325947
0.0020164
2.89461e-05
-0.00087766
0.000100102
-0.00253696
0.000206235
-0.00426045
0.000338486
-0.00603086
0.000488175
-0.00782344
0.000645621
-0.00960302
0.000801899
-0.0113391
0.000949239
-0.0130068
0.00108223
-0.0145952
0.00119804
-0.016107
0.00129646
-0.0175584
0.00137934
-0.0189753
0.00144986
-0.0203891
0.00151169
-0.0218326
0.00156838
-0.0233365
0.00162293
-0.0249297
0.00167775
-0.0266348
0.00173443
-0.0284798
0.00179468
-0.0304732
-0.0326584
0.00185838
2.89842e-05
-0.000906644
9.98e-05
-0.00260777
0.000204814
-0.00436546
0.000334768
-0.00616081
0.000480683
-0.00796935
0.000632722
-0.00975506
0.000782
-0.0114884
0.000920974
-0.0131457
0.00104461
-0.0147189
0.00115047
-0.0162129
0.00123876
-0.0176467
0.00131156
-0.0190481
0.00137215
-0.0204497
0.00142415
-0.0218846
0.00147095
-0.0233833
0.00151526
-0.024974
0.00155921
-0.0266788
0.00160404
-0.0285246
0.00165106
-0.0305202
-0.0327072
0.00169994
2.8984e-05
-0.000935628
9.93586e-05
-0.00267815
0.000203094
-0.0044692
0.000330548
-0.00628826
0.000472468
-0.00811127
0.00061889
-0.00990148
0.000761004
-0.0116305
0.000891524
-0.0132763
0.00100579
-0.0148331
0.0011018
-0.0163089
0.00118008
-0.017725
0.00124296
-0.019111
0.0012938
-0.0205005
0.00133612
-0.0219269
0.00137313
-0.0234203
0.00140729
-0.0250082
0.00144039
-0.0267119
0.00147339
-0.0285576
0.0015072
-0.030554
-0.0327413
0.00154126
2.89447e-05
-0.000964572
9.87757e-05
-0.00274798
0.000201073
-0.00457149
0.00032583
-0.00641302
0.00046354
-0.00824898
0.000604149
-0.0100421
0.000738953
-0.0117653
0.000860946
-0.0133983
0.000965857
-0.0149381
0.00105209
-0.0163951
0.00112051
-0.0177934
0.00117365
-0.0191641
0.00121489
-0.0205417
0.00124768
-0.0219597
0.00127501
-0.0234476
0.00129908
-0.0250322
0.00132139
-0.0267342
0.00134259
-0.0285788
0.0013632
-0.0305747
-0.0327606
0.00138247
2.88653e-05
-0.000993438
9.80498e-05
-0.00281716
0.000198752