/*--------------------------------*- C++ -*----------------------------------*\
  =========                 |
  \\      /  F ield         | OpenFOAM: The Open Source CFD Toolbox
   \\    /   O peration     | Website:  https://openfoam.org
    \\  /    A nd           | Version:  7
     \\/     M anipulation  |
\*---------------------------------------------------------------------------*/
FoamFile
{
    version     2.0;
    format      ascii;
    class       volVectorField;
    location    "5";
    object      U;
}
// * * * * * * * * * * * * * * * * * * * * * * * * * * * * * * * * * * * * * //

dimensions      [0 1 -1 0 0 0 0];

internalField   nonuniform List<vector> 
21000
(
(-0.0018613 0.000237596 -6.46071e-21)
(-0.00462891 0.000133524 2.14314e-21)
(-0.00509008 -0.000153627 -8.34968e-22)
(-0.000929294 -0.00055522 -4.29902e-21)
(0.00766753 -0.000965934 -1.00742e-21)
(0.020477 -0.0013795 4.46633e-21)
(0.0371644 -0.00176731 5.58854e-21)
(0.057195 -0.00213508 -4.67478e-21)
(0.080291 -0.00247836 6.42704e-21)
(0.106077 -0.00280452 -1.79077e-21)
(0.134358 -0.00311718 -1.06015e-21)
(0.164999 -0.0034238 -1.99205e-22)
(0.197846 -0.00373123 -3.88092e-21)
(0.233112 -0.00404733 -3.37366e-21)
(-0.00187146 0.000710361 6.65253e-21)
(-0.00458325 0.000395782 -1.22059e-20)
(-0.0049396 -0.000466718 -4.22984e-21)
(-0.000651371 -0.00167201 3.05676e-21)
(0.00809193 -0.00290428 -8.11698e-21)
(0.0210594 -0.00414494 -1.6036e-21)
(0.0379169 -0.00530813 2.14653e-21)
(0.058128 -0.00641111 -9.0035e-21)
(0.081416 -0.00744047 -3.87674e-21)
(0.107405 -0.00841823 3.76369e-21)
(0.135901 -0.00935528 -7.92708e-21)
(0.166769 -0.0102738 -3.83975e-21)
(0.199853 -0.0111942 3.34949e-21)
(0.235367 -0.0121399 1.03567e-20)
(-0.00189141 0.00117538 2.36785e-21)
(-0.00449129 0.00064493 6.7658e-21)
(-0.00463798 -0.00079322 -7.81825e-21)
(-9.49881e-05 -0.0028001 1.11982e-20)
(0.00894103 -0.0048502 2.12205e-20)
(0.0222243 -0.00691344 -1.68162e-20)
(0.0394216 -0.00884686 -2.19787e-21)
(0.059993 -0.0106794 2.10217e-21)
(0.0836639 -0.0123887 -6.16163e-21)
(0.110058 -0.0140113 -1.88968e-20)
(0.138983 -0.0155653 -1.05836e-20)
(0.170303 -0.0170872 -3.87156e-21)
(0.203859 -0.0186112 9.62545e-21)
(0.239864 -0.020175 -1.27916e-21)
(-0.00192043 0.00162755 -2.60902e-20)
(-0.00435183 0.000872326 -8.20011e-21)
(-0.00418404 -0.00114196 4.10685e-20)
(0.000740734 -0.00394688 -1.36948e-20)
(0.0102152 -0.00680864 -3.49189e-20)
(0.0239712 -0.00968696 3.80368e-20)
(0.0416767 -0.012382 -2.59285e-20)
(0.062787 -0.0149347 -9.78125e-21)
(0.0870299 -0.0173136 6.07031e-21)
(0.114029 -0.0195699 1.5203e-20)
(0.143593 -0.0217284 1.61387e-20)
(0.175585 -0.0238398 -1.029e-20)
(0.209843 -0.0259515 9.86715e-21)
(0.246577 -0.0281149 -2.19275e-20)
(-0.00195746 0.00206183 3.61707e-20)
(-0.00416304 0.00106948 -2.19499e-20)
(-0.00357601 -0.0015216 -5.39663e-20)
(0.00185711 -0.00511958 4.19245e-20)
(0.0119148 -0.00878436 2.61674e-20)
(0.0262993 -0.0124673 -3.00222e-20)
(0.0446801 -0.0159119 2.90716e-20)
(0.0665055 -0.0191716 -1.62436e-20)
(0.0915069 -0.0222058 1.76381e-20)
(0.119307 -0.0250802 5.60582e-21)
(0.149715 -0.0278259 -9.2438e-22)
(0.182594 -0.0305074 1.34617e-20)
(0.217776 -0.0331849 -1.71602e-20)
(0.255465 -0.0359221 1.15429e-20)
(-0.00200108 0.00247333 2.07087e-20)
(-0.00392253 0.00122809 2.81102e-20)
(-0.00281156 -0.00194056 6.15026e-20)
(0.00325587 -0.00632517 -7.77581e-20)
(0.0140405 -0.0107819 -7.43561e-20)
(0.0292077 -0.0152559 6.7814e-20)
(0.0484286 -0.0194346 -4.67579e-21)
(0.0711428 -0.0233847 5.25964e-20)
(0.0970853 -0.0270558 -3.17851e-20)
(0.125877 -0.0305282 4.60421e-20)
(0.15733 -0.0338392 1.6122e-20)
(0.191302 -0.0370661 -9.84317e-21)
(0.227618 -0.0402815 -2.20854e-20)
(0.266478 -0.0435597 -1.29216e-21)
(-0.00204953 0.00285728 -6.04939e-20)
(-0.00362731 0.00134016 -1.58383e-20)
(-0.00188777 -0.00240695 -4.59022e-21)
(0.00493918 -0.00757033 4.69574e-20)
(0.0165932 -0.0128054 9.1634e-20)
(0.0326954 -0.0180541 -4.74545e-20)
(0.0529186 -0.0229482 -3.34666e-20)
(0.0766916 -0.027568 1.31162e-20)
(0.103753 -0.0318538 5.91048e-20)
(0.133723 -0.0358999 -5.00229e-20)
(0.16641 -0.0397495 -3.75176e-20)
(0.201672 -0.043492 -2.51469e-20)
(0.239323 -0.0472119 3.40273e-20)
(0.27955 -0.050992 2.89457e-20)
(-0.00210073 0.00320909 1.10523e-20)
(-0.00327386 0.00139795 3.24612e-20)
(-0.000801194 -0.0029285 -6.94916e-20)
(0.00690961 -0.00886135 -3.16213e-21)
(0.0195736 -0.0148589 -2.36874e-20)
(0.0367608 -0.0208628 -7.63438e-20)
(0.0581455 -0.0264501 5.39213e-20)
(0.0831432 -0.0317156 3.12443e-21)
(0.111497 -0.0365898 -7.3283e-20)
(0.142822 -0.0411813 -6.22744e-21)
(0.176928 -0.0455382 1.59158e-20)
(0.213664 -0.0497617 5.08445e-20)
(0.252832 -0.0539471 -2.41864e-20)
(0.294608 -0.058184 -2.18921e-20)
(-0.00215228 0.00352439 3.53463e-20)
(-0.00285809 0.00139415 -2.99344e-20)
(0.00045215 -0.00351251 -3.50304e-20)
(0.00917011 -0.0102041 -2.60069e-20)
(0.022983 -0.0169455 -1.59656e-21)
(0.0414025 -0.0236825 3.25058e-20)
(0.0641041 -0.0299375 -1.54328e-20)
(0.0904877 -0.035821 -9.83856e-20)
(0.1203 -0.0412538 7.17907e-20)
(0.15315 -0.046358 7.17278e-20)
(0.188846 -0.0511868 1.19267e-20)
(0.227229 -0.0558518 -3.10397e-20)
(0.268082 -0.060459 -1.09883e-20)
(0.311564 -0.065102 -6.50824e-21)
(-0.0022015 0.00379903 2.13445e-20)
(-0.00237541 0.00132184 8.66186e-20)
(0.00187675 -0.0041658 1.29181e-19)
(0.011724 -0.0116038 8.34481e-20)
(0.0268224 -0.0190684 3.39709e-21)
(0.0466185 -0.0265132 2.46925e-20)
(0.0707885 -0.0334072 3.41841e-20)
(0.098714 -0.0398776 -1.98183e-20)
(0.130144 -0.0458351 -9.20458e-20)
(0.164681 -0.0514158 -9.11927e-20)
(0.202128 -0.0566768 -2.45075e-21)
(0.242313 -0.0617396 7.40212e-20)
(0.285 -0.0667201 -1.57437e-20)
(0.330324 -0.0717137 8.14983e-21)
(0.377623 -0.0768661 -2.0223e-20)
(-0.00224539 0.00402914 -3.75341e-20)
(-0.00182072 0.00117458 -9.70373e-20)
(0.0034776 -0.00489465 -2.59073e-20)
(0.014575 -0.0130653 -1.12606e-19)
(0.0310933 -0.0212297 2.80609e-20)
(0.0524069 -0.0293543 -6.28688e-20)
(0.0781921 -0.0368555 -6.80007e-20)
(0.107809 -0.0438783 2.72097e-20)
(0.141009 -0.0503231 3.43108e-20)
(0.177384 -0.0563401 -1.77818e-20)
(0.216729 -0.0619898 -8.67337e-20)
(0.258857 -0.0674027 -9.61889e-20)
(0.303507 -0.0727038 4.53826e-20)
(0.350785 -0.0779884 -1.13915e-20)
(0.399961 -0.0834222 -7.16522e-21)
(-0.00228072 0.00421112 -9.4399e-20)
(-0.00118847 0.000946435 -3.5996e-20)
(0.00526011 -0.00570471 3.91293e-20)
(0.0177271 -0.0145926 8.20196e-20)
(0.0357969 -0.0234312 -7.38507e-20)
(0.0587653 -0.0322048 9.87194e-20)
(0.0863076 -0.040278 1.26942e-19)
(0.11776 -0.0478153 3.19144e-20)
(0.152873 -0.0547068 -1.70936e-20)
(0.191226 -0.0611163 1.26757e-19)
(0.232603 -0.0671075 1.62373e-19)
(0.276798 -0.072819 1.18959e-19)
(0.323518 -0.0783846 -4.72392e-20)
(0.372835 -0.0838969 -8.47633e-22)
(0.423944 -0.0895434 1.05158e-20)
(-0.002304 0.00434171 8.69226e-20)
(-0.000472681 0.000632018 5.81412e-20)
(0.00723015 -0.00660098 -9.48657e-20)
(0.0211846 -0.0161893 -4.5989e-20)
(0.0409347 -0.025674 5.66527e-20)
(0.0656914 -0.0350629 -5.85362e-20)
(0.0951273 -0.0436701 -2.51913e-20)
(0.128551 -0.0516808 2.42726e-20)
(0.165712 -0.0589748 3.1188e-20)
(0.206171 -0.0657297 -3.52715e-20)
(0.2497 -0.0720118 -5.27757e-20)
(0.296066 -0.0779672 -6.28028e-20)
(0.344942 -0.083738 2.58679e-20)
(0.396356 -0.0894121 -1.42816e-20)
(0.449425 -0.0952002 3.28539e-20)
(-0.00231147 0.00441773 -7.972e-20)
(0.000332993 0.000226746 9.94672e-20)
(0.00939399 -0.00758776 2.82096e-20)
(0.0249522 -0.0178578 3.68135e-20)
(0.0465084 -0.0279583 1.29945e-19)
(0.0731822 -0.0379262 -6.1891e-20)
(0.104643 -0.0470262 -1.5728e-19)
(0.140167 -0.0554662 2.9883e-21)
(0.179499 -0.0631152 -5.62072e-21)
(0.222181 -0.0701653 -1.17804e-19)
(0.267965 -0.0766847 -6.20249e-20)
(0.316589 -0.0828265 -4.15582e-20)
(0.367683 -0.0887406 -1.6967e-20)
(0.421224 -0.0945085 2.45896e-21)
(0.476247 -0.100366 -6.39738e-20)
(-0.00229898 0.004436 4.75861e-20)
(0.00123519 -0.000272979 -7.3519e-20)
(0.0117582 -0.00866856 9.81985e-21)
(0.0290346 -0.0196002 -1.62029e-19)
(0.0525195 -0.0302838 -1.2137e-19)
(0.081235 -0.0407915 1.37086e-19)
(0.114844 -0.0503402 -2.25619e-20)
(0.15259 -0.0591623 8.83258e-20)
(0.194208 -0.0671161 1.43367e-20)
(0.239216 -0.0744082 1.05661e-19)
(0.287343 -0.0811085 7.70224e-20)
(0.33829 -0.0873767 -1.79211e-20)
(0.39164 -0.0933703 3.11921e-20)
(0.447312 -0.0991631 9.56034e-20)
(0.504253 -0.105017 1.96407e-20)
(-0.00226248 0.00439496 5.6752e-20)
(0.00224126 -0.000871168 2.91677e-20)
(0.0143296 -0.00984617 -2.79306e-20)
(0.0334371 -0.0214176 1.95085e-19)
(0.0589696 -0.032649 -1.07353e-19)
(0.0898463 -0.0436549 -1.0349e-19)
(0.125723 -0.0536055 7.14784e-20)
(0.165802 -0.0627595 -1.04017e-20)
(0.20981 -0.070965 6.50637e-20)
(0.257233 -0.0784432 -6.99572e-20)
(0.307774 -0.0852657 2.70928e-20)
(0.36109 -0.0915985 3.56855e-20)
(0.41671 -0.0976066 1.20174e-19)
(0.474488 -0.103355 -8.3842e-20)
(0.533279 -0.109133 -5.22677e-20)
(-0.00219803 0.00429337 -9.88842e-20)
(0.00335867 -0.00157125 -4.74105e-20)
(0.0171155 -0.0111225 1.04515e-19)
(0.0381647 -0.0233099 -2.58379e-20)
(0.0658603 -0.0350519 1.04614e-19)
(0.0990126 -0.0465117 1.47632e-19)
(0.137267 -0.0568146 -6.25719e-20)
(0.179784 -0.0662477 -7.02641e-20)
(0.226273 -0.0746491 -2.03258e-19)
(0.276187 -0.0822552 1.47189e-19)
(0.329196 -0.0891393 -1.83359e-20)
(0.384905 -0.0954734 -1.0364e-20)
(0.442786 -0.10143 -7.34024e-20)
(0.502617 -0.107066 4.31565e-20)
(0.563161 -0.112698 3.93352e-20)
(-0.00210112 0.00412921 -4.50979e-20)
(0.00459487 -0.00237481 -3.47536e-20)
(0.0201234 -0.0124985 -1.31064e-19)
(0.043223 -0.0252766 -1.8125e-20)
(0.0731931 -0.0374894 7.97181e-20)
(0.10873 -0.0493563 -1.213e-19)
(0.149467 -0.0599592 1.93013e-20)
(0.194515 -0.0696161 7.74701e-20)
(0.243566 -0.0781553 1.5192e-19)
(0.296032 -0.0858291 -1.50148e-19)
(0.351544 -0.0927124 -5.15581e-20)
(0.409651 -0.0989839 7.32464e-20)
(0.469759 -0.104824 1.66239e-20)
(0.531564 -0.110279 2.02478e-20)
(0.593737 -0.115698 3.33815e-20)
(-0.00196718 0.00390117 2.21646e-19)
(0.00595764 -0.00328298 -7.11246e-20)
(0.0233609 -0.0139745 1.71677e-19)
(0.0486172 -0.0273159 -8.34898e-21)
(0.0809695 -0.0399576 -9.14714e-20)
(0.118995 -0.0521822 2.13088e-21)
(0.162309 -0.0630305 6.36519e-20)
(0.209974 -0.0728534 -1.11071e-20)
(0.261655 -0.08147 -1.08391e-19)
(0.31672 -0.0891496 1.09565e-20)
(0.374753 -0.0959689 -2.01565e-21)
(0.435241 -0.102113 -6.76118e-21)
(0.497518 -0.107772 -1.85739e-19)
(0.561192 -0.112982 -4.31226e-20)
(0.624842 -0.118124 -4.17287e-20)
(-0.00179161 0.00360852 -1.38867e-19)
(0.00745497 -0.00429629 2.15858e-19)
(0.0268356 -0.0155495 -2.08655e-19)
(0.054353 -0.0294252 1.42193e-22)
(0.0891907 -0.0424515 -2.04714e-20)
(0.129801 -0.0549823 -8.59666e-20)
(0.175783 -0.0660187 1.3158e-21)
(0.226138 -0.0759478 9.60804e-20)
(0.280506 -0.0845797 1.96053e-19)
(0.3382 -0.0922017 -1.02007e-19)
(0.398754 -0.0988929 6.50765e-20)
(0.461585 -0.104847 -2.87339e-20)
(0.525951 -0.11026 1.28017e-19)
(0.591364 -0.115163 -1.63715e-20)
(0.656316 -0.119969 -2.02918e-20)
(-0.00156973 0.00325095 -5.76365e-20)
(0.00909496 -0.00541451 -2.56926e-19)
(0.0305556 -0.017222 1.90509e-19)
(0.0604358 -0.0316009 1.49392e-19)
(0.0978578 -0.0449653 1.23293e-19)
(0.141146 -0.0577482 1.1742e-19)
(0.189875 -0.0689136 2.08635e-19)
(0.242985 -0.0788868 -2.77549e-19)
(0.300082 -0.0874703 -1.58591e-19)
(0.360421 -0.0949705 4.29272e-20)
(0.423478 -0.10147 -2.69031e-20)
(0.488593 -0.107169 -9.20743e-20)
(0.554945 -0.112277 -6.75695e-20)
(0.621945 -0.116816 3.03166e-21)
(0.688002 -0.121232 5.45882e-20)
(-0.00129684 0.00282854 1.48946e-19)
(0.0108858 -0.00663661 1.92585e-19)
(0.0345286 -0.0189893 -7.76039e-20)
(0.0668709 -0.0338382 -1.78315e-19)
(0.106972 -0.047492 -1.30117e-19)
(0.153022 -0.0604709 -7.45692e-20)
(0.20457 -0.0717038 -1.74558e-19)
(0.260489 -0.0816576 5.1367e-20)
(0.320345 -0.0901277 6.18522e-20)
(0.383329 -0.0974414 -3.06787e-20)
(0.448853 -0.103684 2.80214e-20)
(0.516174 -0.109069 1.37781e-21)
(0.584387 -0.113813 1.44026e-19)
(0.6528 -0.117935 -6.21298e-20)
(0.719745 -0.121913 -2.69916e-20)
(-0.000968198 0.00234174 -1.73763e-19)
(0.0128356 -0.00796076 -1.53803e-19)
(0.0387626 -0.0208477 -2.03367e-19)
(0.0736637 -0.0361315 2.48832e-20)
(0.116533 -0.050024 7.07619e-20)
(0.165424 -0.0631406 4.04251e-20)
(0.219855 -0.0743777 -1.2455e-19)
(0.278625 -0.0842469 1.14914e-19)
(0.341258 -0.0925377 -1.32582e-19)
(0.40687 -0.0995998 6.23616e-20)
(0.474807 -0.105524 5.63075e-20)
(0.544236 -0.110535 1.53347e-19)
(0.614165 -0.114861 2.38153e-20)
(0.683798 -0.118518 5.99644e-20)
(0.751399 -0.122019 -2.88929e-20)
(0.816977 -0.124595 9.36464e-20)
(-0.000579089 0.00179143 7.72017e-20)
(0.0149527 -0.00938436 -1.35654e-20)
(0.0432652 -0.0227926 6.39348e-20)
(0.0808191 -0.0384741 -5.28506e-20)
(0.126541 -0.0525523 3.39443e-20)
(0.178345 -0.0657463 1.68423e-19)
(0.235713 -0.0769226 -1.07917e-19)
(0.297367 -0.0866408 -2.97918e-20)
(0.362779 -0.0946859 1.97567e-19)
(0.430989 -0.101432 -8.80033e-20)
(0.501267 -0.106977 2.4821e-20)
(0.572686 -0.111557 2.80765e-20)
(0.644169 -0.115415 -1.81412e-19)
(0.71481 -0.118568 5.64436e-20)
(0.782821 -0.121558 -2.6813e-20)
(0.848086 -0.123569 -1.91039e-20)
(-0.000124818 0.00117887 1.20897e-19)
(0.0172451 -0.010904 2.93802e-19)
(0.0480441 -0.0248187 1.66726e-19)
(0.0883421 -0.0408582 -2.78179e-21)
(0.136997 -0.0550671 -1.264e-19)
(0.191778 -0.0682764 -7.0425e-20)
(0.252129 -0.0793255 1.89133e-19)
(0.316687 -0.0888252 -7.42579e-21)
(0.384868 -0.0965581 9.82927e-22)
(0.455628 -0.102925 1.59454e-19)
(0.528158 -0.10803 -9.06207e-20)
(0.601433 -0.112127 -9.98651e-20)
(0.674287 -0.115473 1.55191e-19)
(0.745713 -0.118088 5.65208e-20)
(0.813877 -0.120544 1.19919e-19)
(0.878548 -0.121984 -1.3777e-19)
(0.00039926 0.000505709 1.09921e-19)
(0.0197208 -0.0125155 -1.16391e-19)
(0.0531066 -0.0269192 -1.01228e-19)
(0.0962369 -0.0432753 9.65972e-20)
(0.147899 -0.0575578 1.68635e-19)
(0.205714 -0.0707184 4.85041e-20)
(0.269084 -0.0815724 7.42732e-20)
(0.336556 -0.0907858 -1.30866e-19)
(0.407481 -0.0981401 8.62178e-20)
(0.48073 -0.104065 -1.67941e-19)
(0.555405 -0.108674 -1.93044e-19)
(0.630384 -0.112241 -4.17986e-21)
(0.704413 -0.115035 -3.94263e-20)
(0.776386 -0.117085 -1.30847e-19)
(0.844441 -0.118992 -5.75452e-20)
(0.908237 -0.119866 9.04991e-20)
(0.000997713 -0.00022603 -1.17644e-19)
(0.0223876 -0.014214 -1.50354e-19)
(0.0584601 -0.0290869 8.17236e-20)
(0.104508 -0.0457155 9.72916e-20)
(0.159246 -0.0600126 -5.78852e-20)
(0.220146 -0.0730591 -1.64925e-19)
(0.286561 -0.0836493 -1.68493e-20)
(0.356943 -0.0925081 -4.63106e-20)
(0.430576 -0.099418 -3.17401e-19)
(0.506235 -0.10484 1.2729e-19)
(0.582933 -0.108901 2.5947e-19)
(0.659448 -0.111893 3.76086e-20)
(0.734443 -0.114104 -5.96144e-20)
(0.806716 -0.115571 2.42568e-20)
(0.874395 -0.116921 -1.34758e-19)
(0.937042 -0.117245 -3.21022e-20)
(0.00167501 -0.00101394 -3.14573e-19)
(0.0252531 -0.0159936 1.91459e-19)
(0.0641112 -0.0313134 -1.37339e-19)
(0.113158 -0.0481682 -2.85101e-19)
(0.171037 -0.062419 -9.66363e-20)
(0.235064 -0.0752844 4.20617e-20)
(0.30454 -0.0855412 -8.92841e-21)
(0.377818 -0.0939772 1.52126e-19)
(0.454108 -0.100378 2.10482e-19)
(0.532083 -0.10524 2.05245e-19)
(0.610668 -0.108703 -7.42091e-20)
(0.688536 -0.111082 -1.2645e-19)
(0.764273 -0.112684 2.09082e-20)
(0.836593 -0.113559 -5.6577e-20)
(0.90363 -0.114355 5.21329e-20)
(0.964863 -0.114153 3.26829e-20)
(0.00243552 -0.00185528 1.12742e-19)
(0.0283247 -0.0178481 -4.11453e-20)
(0.0700664 -0.0335893 2.5659e-20)
(0.122191 -0.0506218 2.43837e-19)
(0.183267 -0.0647637 7.33222e-20)
(0.250456 -0.0773798 -2.96357e-19)
(0.323001 -0.0872331 1.62763e-19)
(0.399149 -0.0951785 -1.50371e-19)
(0.478029 -0.101008 -4.56596e-20)
(0.558214 -0.105254 -8.90024e-20)
(0.638533 -0.108074 6.95366e-20)
(0.717559 -0.109809 -9.86818e-20)
(0.793807 -0.110783 -8.70424e-20)
(0.865916 -0.111066 1.22363e-19)
(0.932047 -0.111318 1.68302e-19)
(0.991615 -0.110625 1.01253e-20)
(0.00328346 -0.00274692 -3.48217e-21)
(0.0316094 -0.0197701 8.90279e-20)
(0.0763317 -0.0359045 1.72169e-19)
(0.131609 -0.0530638 -8.9345e-20)
(0.195934 -0.0670323 -3.0242e-19)
(0.266312 -0.0793299 1.51198e-19)
(0.341922 -0.0887096 -3.41967e-19)
(0.420901 -0.0960974 2.04569e-19)
(0.502295 -0.101295 9.2557e-20)
(0.584568 -0.104874 -1.22908e-20)
(0.666454 -0.107011 -9.55745e-20)
(0.746431 -0.108076 2.01364e-20)
(0.822949 -0.108413 1.39424e-19)
(0.894589 -0.108109 -1.22061e-19)
(0.959558 -0.107839 -9.03562e-21)
(1.01722 -0.106697 -5.80179e-20)
(0.00422288 -0.00368543 2.18511e-19)
(0.0351139 -0.0217519 -2.48193e-20)
(0.0829124 -0.0382481 -1.2091e-19)
(0.141413 -0.0554809 -1.7055e-19)
(0.209033 -0.0692099 1.45597e-19)
(0.282619 -0.081119 -1.5936e-19)
(0.361279 -0.0899548 1.47285e-19)
(0.44304 -0.0967196 -4.52093e-20)
(0.526855 -0.101226 -1.92102e-19)
(0.611081 -0.104091 -9.06761e-21)
(0.694356 -0.105512 1.02234e-19)
(0.775067 -0.105888 2.08495e-19)
(0.851612 -0.105585 -9.1991e-20)
(0.922526 -0.104712 1.53075e-19)
(0.986085 -0.103948 2.59249e-21)
(1.04163 -0.102408 9.45656e-20)
(1.08692 -0.102465 -9.23188e-20)
(0.0052577 -0.00466704 -1.85482e-19)
(0.0388444 -0.0237848 -1.00508e-19)
(0.0898136 -0.0406083 -9.325e-20)
(0.151605 -0.0578587 3.36958e-19)
(0.22256 -0.0712809 1.79297e-19)
(0.299362 -0.0827308 2.10883e-19)
(0.38105 -0.0909533 9.68837e-20)
(0.46553 -0.0970309 3.84752e-20)
(0.551662 -0.100792 1.34719e-19)
(0.637692 -0.1029 -3.62531e-19)
(0.722167 -0.103575 -1.1891e-20)
(0.803387 -0.103252 -4.76769e-20)
(0.879711 -0.102315 1.80256e-19)
(0.949645 -0.100897 2.54547e-21)
(1.01156 -0.0996764 3.61808e-20)
(1.0648 -0.097796 -9.28106e-20)
(1.10749 -0.0975629 3.62686e-20)
(0.00639161 -0.00568769 -1.72667e-19)
(0.0428068 -0.0258599 4.74536e-20)
(0.0970393 -0.0429724 2.3149e-20)
(0.162185 -0.0601825 -1.16951e-19)
(0.236506 -0.0732291 -1.22413e-19)
(0.316527 -0.0841488 -5.99173e-20)
(0.401208 -0.0916891 1.34624e-19)
(0.488333 -0.0970179 6.84009e-20)
(0.576666 -0.0999816 -6.14217e-20)
(0.66434 -0.101295 1.80551e-19)
(0.749814 -0.101204 1.03027e-19)
(0.831312 -0.100178 -8.87591e-21)
(0.907166 -0.0986202 -1.1007e-19)
(0.975877 -0.0966902 -1.51774e-19)
(1.03592 -0.0950572 -9.07537e-20)
(1.08668 -0.0928996 3.01012e-20)
(1.12668 -0.0924287 -9.1789e-22)
(0.0076281 -0.00674301 -7.19224e-21)
(0.0470064 -0.0279671 1.81939e-21)
(0.104593 -0.0453273 1.68995e-19)
(0.173152 -0.0624366 -2.20059e-19)
(0.250865 -0.0750377 1.27961e-19)
(0.334098 -0.0853561 1.60502e-19)
(0.421727 -0.0921467 -8.82105e-20)
(0.511412 -0.0966675 4.21874e-20)
(0.601815 -0.0987868 -5.65424e-20)
(0.690962 -0.0992736 -1.09355e-20)
(0.777227 -0.0984011 4.0672e-20)
(0.858767 -0.0966763 7.10342e-20)
(0.933906 -0.0945213 -1.10122e-20)
(1.00116 -0.0921196 1.23505e-19)
(1.05914 -0.0901248 8.21502e-20)
(1.10726 -0.0877574 3.54665e-20)
(1.14449 -0.0871032 -9.55487e-21)
(0.00897045 -0.00782836 4.69245e-19)
(0.0514481 -0.0300963 -1.31317e-19)
(0.112478 -0.0476589 -2.7144e-19)
(0.184503 -0.0646049 2.28155e-19)
(0.265628 -0.0766896 -1.08289e-19)
(0.352057 -0.0863358 -3.31991e-20)
(0.442579 -0.0923108 2.95104e-20)
(0.534726 -0.0959675 2.40646e-20)
(0.627059 -0.0971998 3.68002e-20)
(0.717497 -0.0968339 -7.98159e-20)
(0.804336 -0.0951729 -1.11363e-20)
(0.885682 -0.0927616 -2.62868e-19)
(0.959863 -0.0900395 -5.69946e-20)
(1.02543 -0.0872136 -4.81273e-20)
(1.08116 -0.0849139 -1.64458e-20)
(1.12652 -0.0824074 2.50154e-20)
(1.16093 -0.081626 -6.38993e-21)
(0.0104217 -0.00893885 -3.86746e-19)
(0.056136 -0.0322365 3.62378e-20)
(0.120695 -0.0499527 1.6676e-19)
(0.196236 -0.0666704 -1.56997e-19)
(0.280785 -0.0781671 -1.39747e-19)
(0.370385 -0.0870709 -2.00763e-19)
(0.463733 -0.0921664 -8.86866e-20)
(0.558234 -0.0949065 -2.1465e-19)
(0.652347 -0.0952142 -2.01989e-20)
(0.743885 -0.0939762 7.10596e-20)
(0.831076 -0.0915269 -2.0532e-19)
(0.91199 -0.0884495 9.19644e-20)
(0.984978 -0.0851982 -3.92496e-20)
(1.04865 -0.0820023 -9.25222e-20)
(1.10196 -0.0794594 -1.17043e-19)
(1.14448 -0.0768864 1.09641e-20)
(1.17603 -0.0760345 4.33189e-20)
(0.0119846 -0.0100693 3.31759e-19)
(0.0610738 -0.0343764 8.31846e-20)
(0.129246 -0.0521937 1.53906e-19)
(0.208348 -0.068616 1.26946e-19)
(0.296324 -0.0794525 3.69928e-19)
(0.389061 -0.0875444 1.68019e-19)
(0.48516 -0.0916991 -3.20814e-20)
(0.581896 -0.093474 8.73258e-20)
(0.677625 -0.0928253 -1.03168e-19)
(0.770065 -0.0907026 1.82428e-19)
(0.857383 -0.0874728 9.22756e-20)
(0.937628 -0.0837575 2.05879e-20)
(1.0092 -0.0800225 1.55413e-19)
(1.07079 -0.0765162 2.92222e-20)
(1.12153 -0.0737957 9.19977e-20)
(1.16114 -0.0712297 -1.39242e-19)
(1.18983 -0.0703638 -1.04901e-19)
(1.2082 -0.0673776 1.035e-21)
(0.0136616 -0.0112144 -4.20603e-19)
(0.0662645 -0.036504 1.20559e-20)
(0.138131 -0.0543661 -1.86163e-19)
(0.220832 -0.070424 1.67613e-20)
(0.312234 -0.0805279 -4.65887e-19)
(0.408064 -0.0877397 2.2969e-20)
(0.506828 -0.090895 3.00838e-20)
(0.605668 -0.0916607 -2.11591e-20)
(0.702843 -0.0900297 6.46549e-20)
(0.795978 -0.087017 -1.74051e-20)
(0.883196 -0.0830225 4.77504e-20)
(0.962539 -0.078705 2.55307e-20)
(1.03247 -0.0745384 -4.03831e-20)
(1.0918 -0.0707862 -1.26763e-20)
(1.13987 -0.067957 -4.71067e-20)
(1.17652 -0.0654706 1.42805e-19)
(1.20237 -0.0646469 5.4174e-20)
(1.21781 -0.0620707 5.30078e-20)
(0.015455 -0.0123685 3.32755e-19)
(0.0717103 -0.0386072 -2.01785e-19)
(0.147349 -0.056454 1.79719e-20)
(0.233683 -0.0720766 -2.08213e-19)
(0.328499 -0.0813752 5.24982e-19)
(0.427371 -0.0876404 1.85464e-19)
(0.528702 -0.089741 -2.92741e-19)
(0.629507 -0.0894586 -6.82433e-20)
(0.727947 -0.0868257 1.11291e-21)
(0.821567 -0.082925 1.28043e-20)
(0.908456 -0.0781894 -1.22193e-19)
(0.986673 -0.0733128 4.66682e-20)
(1.05477 -0.0687728 1.20272e-19)
(1.11168 -0.0648433 1.7919e-19)
(1.15697 -0.0619763 5.03766e-20)
(1.19065 -0.0596404 -4.61954e-20)
(1.21369 -0.0589144 -1.88215e-20)
(1.22635 -0.0568243 -6.96456e-20)
(0.0173667 -0.0135259 9.00865e-20)
(0.0774128 -0.0406734 3.1588e-19)
(0.156898 -0.0584411 -1.00251e-19)
(0.246892 -0.0735556 9.44552e-20)
(0.345105 -0.0819767 -2.0305e-19)
(0.446957 -0.0872305 -7.091e-20)
(0.550748 -0.0882251 2.06406e-19)
(0.65337 -0.0868608 1.7267e-20)
(0.752887 -0.0832133 9.11529e-20)
(0.846777 -0.0784342 -4.21167e-20)
(0.933109 -0.0729887 6.94029e-20)
(1.00998 -0.0676032 -3.60811e-20)
(1.07605 -0.0627536 -5.34803e-20)
(1.13041 -0.0587181 -1.85048e-19)
(1.17285 -0.0558851 -9.89546e-20)
(1.20356 -0.0537682 -4.05201e-20)
(1.22385 -0.0531951 6.49876e-21)
(1.2339 -0.0516548 5.13627e-20)
(0.0193984 -0.0146808 -3.94373e-19)
(0.0833729 -0.0426897 -5.98033e-20)
(0.166775 -0.0603108 9.80571e-20)
(0.260451 -0.0748428 -9.96208e-20)
(0.362035 -0.0823147 -1.24868e-19)
(0.466796 -0.0864947 -2.35728e-19)
(0.572932 -0.086336 -2.18407e-19)
(0.67721 -0.083862 1.96034e-19)
(0.777612 -0.0791942 6.68633e-20)
(0.871553 -0.073554 -2.14927e-19)
(0.957105 -0.0674375 -5.51055e-20)
(1.03242 -0.0615995 -1.57713e-19)
(1.0963 -0.0565086 -7.47048e-20)
(1.14799 -0.0524407 1.8035e-19)
(1.18753 -0.0497137 9.62324e-20)
(1.2153 -0.0478803 -8.36597e-20)
(1.23292 -0.0475151 -6.40753e-21)
(1.24052 -0.0465707 -4.91328e-20)
(1.24344 -0.0479423 6.87605e-20)
(0.0215516 -0.0158272 2.70955e-19)
(0.0895908 -0.0446432 -5.15116e-20)
(0.176976 -0.0620462 2.15375e-19)
(0.27435 -0.0759202 2.13711e-19)
(0.37927 -0.0823719 1.79642e-19)
(0.486861 -0.0854185 1.09828e-19)
(0.595215 -0.0840639 2.93045e-19)
(0.700985 -0.0804583 -1.33482e-19)
(0.80207 -0.0747719 -1.31122e-20)
(0.895845 -0.0682956 2.64365e-19)
(0.980397 -0.0615541 1.18682e-19)
(1.05396 -0.0553259 2.96233e-19)
(1.11548 -0.0500659 1.70426e-20)
(1.16441 -0.0460403 -1.64285e-19)
(1.20102 -0.0434903 -5.44476e-20)
(1.2259 -0.042001 1.66239e-19)
(1.24093 -0.0418977 2.27438e-20)
(1.24629 -0.0415783 6.35372e-20)
(1.24765 -0.0426041 -8.22192e-21)
(0.0238269 -0.0169585 -1.97158e-19)
(0.0960656 -0.04652 -9.07078e-21)
(0.187496 -0.0636303 -2.84571e-19)
(0.288576 -0.0767694 -2.27429e-20)
(0.39679 -0.0821311 1.17237e-19)
(0.507122 -0.0839879 -1.04914e-20)
(0.617561 -0.0813998 -4.51089e-20)
(0.724648 -0.0766474 -1.78135e-19)
(0.826213 -0.0699514 -4.55088e-20)
(0.919603 -0.0626717 -2.71685e-19)
(1.00294 -0.0553581 -3.72642e-20)
(1.07457 -0.0488074 -2.032e-19)
(1.13359 -0.0434534 3.16304e-20)
(1.17968 -0.0395449 2.47006e-20)
(1.21336 -0.0372412 3.81497e-20)
(1.23542 -0.0361516 -1.38086e-19)
(1.24797 -0.0363628 -5.53615e-20)
(1.25126 -0.0366809 2.82174e-20)
(1.25108 -0.0374982 -5.89681e-20)
(0.026225 -0.0180686 2.76285e-19)
(0.102795 -0.0483067 -9.2311e-20)
(0.198328 -0.065046 8.80385e-20)
(0.303117 -0.0773723 5.86586e-20)
(0.414574 -0.0815759 -3.59419e-19)
(0.527551 -0.0821898 -1.82112e-19)
(0.639931 -0.0783361 2.98582e-20)
(0.748155 -0.0724286 1.16851e-19)
(0.849993 -0.0647397 -6.11662e-20)
(0.942781 -0.0566966 3.67687e-19)
(1.0247 -0.0488704 1.28805e-19)
(1.09422 -0.0420691 1.32507e-19)
(1.15063 -0.0366985 -1.24739e-20)
(1.19383 -0.0329812 -2.55559e-20)
(1.2246 -0.0309908 -9.0396e-20)
(1.24392 -0.0303513 5.12819e-21)
(1.25409 -0.0309265 1.05333e-19)
(1.25551 -0.0318833 -8.98239e-20)
(1.25386 -0.0326246 5.23719e-20)
(0.0287462 -0.0191508 -2.17629e-19)
(0.109778 -0.0499896 2.24568e-19)
(0.209465 -0.0662762 -1.64879e-19)
(0.317958 -0.0777114 -2.34149e-19)
(0.4326 -0.0806905 1.40924e-19)
(0.548114 -0.0800126 1.93886e-19)
(0.662286 -0.0748669 1.02142e-19)
(0.77146 -0.0678028 7.89532e-21)
(0.873362 -0.0591453 9.26906e-21)
(0.965336 -0.0503862 -3.33071e-19)
(1.04564 -0.0421126 -2.25961e-19)
(1.11289 -0.0351367 -9.65931e-20)
(1.1666 -0.0298277 -9.89781e-20)
(1.20688 -0.0263745 -1.63884e-20)
(1.23475 -0.0247608 -4.45753e-20)
(1.25143 -0.0246169 -9.20249e-21)
(1.25936 -0.0256017 -3.8907e-20)
(1.25907 -0.027191 7.75499e-20)
(1.25605 -0.0279763 -9.41748e-20)
(1.24358 -0.0310728 1.55057e-20)
(0.0313902 -0.0201988 -1.97063e-19)
(0.11701 -0.0515548 -3.97378e-19)
(0.220897 -0.067304 4.12419e-20)
(0.333083 -0.0777692 1.70035e-19)
(0.450843 -0.0794599 1.13971e-19)
(0.568781 -0.0774455 3.84019e-20)
(0.684585 -0.0709875 -2.81616e-19)
(0.79452 -0.0627728 -3.31616e-20)
(0.896277 -0.0531786 -3.57477e-20)
(0.987228 -0.0437577 8.53173e-20)
(1.06574 -0.0351074 2.14978e-19)
(1.13058 -0.0280355 -7.15861e-20)
(1.18149 -0.022867 5.13695e-20)
(1.21884 -0.0197481 1.51691e-19)
(1.24388 -0.0185709 1.78934e-19)
(1.25802 -0.0189628 8.59362e-20)
(1.26383 -0.0203982 9.1041e-20)
(1.262 -0.02261 -3.59146e-21)
(1.25775 -0.0235432 1.42797e-19)
(1.24526 -0.0275453 -3.20441e-20)
(0.0341567 -0.0212059 3.9402e-21)
(0.124487 -0.0529887 -4.34423e-21)
(0.232616 -0.0681129 5.97384e-20)
(0.348474 -0.0775292 3.10502e-20)
(0.469278 -0.0778698 -1.3727e-19)
(0.589517 -0.0744789 -1.75051e-19)
(0.70679 -0.0666949 3.58292e-19)
(0.81729 -0.0573428 -4.08798e-20)
(0.918693 -0.0468513 -1.01593e-19)
(1.00842 -0.0368294 1.3241e-21)
(1.08496 -0.0278776 -2.54827e-19)
(1.14727 -0.0207906 1.06123e-19)
(1.19533 -0.0158408 -9.3302e-22)
(1.22975 -0.0131238 -1.14823e-20)
(1.25201 -0.0124387 -7.38033e-20)
(1.26374 -0.0134012 -1.51711e-19)
(1.26757 -0.0153234 -9.09615e-20)
(1.26436 -0.0181454 -1.78482e-20)
(1.25899 -0.0193145 -9.3701e-20)
(1.24658 -0.024044 3.68691e-20)
(0.0370446 -0.0221654 1.86647e-19)
(0.132203 -0.0542775 5.05553e-19)
(0.244609 -0.0686862 2.18879e-19)
(0.364114 -0.0769749 1.2247e-19)
(0.487879 -0.0759072 1.46543e-19)
(0.610288 -0.0711048 3.98427e-20)
(0.728859 -0.0619877 -1.29391e-19)
(0.839728 -0.0515189 1.47834e-19)
(0.940571 -0.0401767 3.98003e-20)
(1.02888 -0.0296207 8.47904e-20)
(1.10328 -0.0204466 1.25619e-19)
(1.16296 -0.0134268 -1.457e-19)
(1.20812 -0.00877264 9.87425e-20)
(1.23964 -0.00652171 -7.20351e-20)
(1.25921 -0.00637934 -6.64943e-20)
(1.26864 -0.00794241 8.86983e-20)
(1.27064 -0.0103824 6.00477e-21)
(1.2662 -0.0138014 -9.27443e-21)
(1.25984 -0.0152796 2.20987e-20)
(1.24756 -0.0206012 2.34369e-20)
(0.0400529 -0.0230708 2.24903e-19)
(0.140154 -0.0554076 -1.67298e-19)
(0.256864 -0.0690079 -1.4104e-19)
(0.379982 -0.076091 -3.65282e-19)
(0.506616 -0.0735598 -1.79847e-19)
(0.63106 -0.0673164 5.67088e-20)
(0.750753 -0.056866 -1.0046e-19)
(0.861792 -0.0453087 -1.3529e-20)
(0.961871 -0.0331697 1.22519e-20)
(1.04858 -0.0221519 -1.72036e-19)
(1.1207 -0.012838 -1.99349e-19)
(1.17765 -0.00596793 1.90756e-19)
(1.21989 -0.00168447 -1.41503e-19)
(1.24854 4.02875e-05 8.91644e-20)
(1.26552 -0.000405904 1.12228e-19)
(1.27278 -0.00259457 -3.01983e-20)
(1.27308 -0.00557842 5.75311e-20)
(1.26755 -0.00958084 4.01376e-20)
(1.26034 -0.0114282 -1.11336e-20)
(1.24823 -0.0172408 3.45492e-20)
(0.0431797 -0.0239155 -2.65171e-19)
(0.148331 -0.0563655 -2.36856e-19)
(0.269367 -0.0690625 -1.21359e-19)
(0.396056 -0.0748627 1.83963e-19)
(0.525462 -0.0708166 -1.53872e-19)
(0.651795 -0.0631084 -1.55603e-19)
(0.772431 -0.0513317 1.19343e-19)
(0.883441 -0.0387215 5.21229e-20)
(0.982557 -0.0258461 1.71451e-19)
(1.06748 -0.0144438 2.77036e-19)
(1.1372 -0.00507509 1.26618e-19)
(1.19135 0.0015627 -2.17755e-19)
(1.23066 0.0054032 1.03335e-19)
(1.25651 0.00654595 -1.42594e-19)
(1.27099 0.00547051 -8.80682e-22)
(1.27622 0.00263582 1.26056e-19)
(1.27496 -0.000912993 -3.34503e-20)
(1.26847 -0.00548563 -5.29253e-21)
(1.26052 -0.00775058 -9.96298e-21)
(1.24862 -0.0139795 -7.36685e-20)
(0.046423 -0.0246926 3.4124e-19)
(0.156728 -0.0571381 1.79407e-19)
(0.282103 -0.0688346 4.62857e-20)
(0.412315 -0.0732761 9.71342e-20)
(0.544386 -0.067668 1.52732e-19)
(0.672459 -0.0584771 1.53566e-19)
(0.793853 -0.0453882 -1.65087e-19)
(0.904636 -0.0317681 1.20968e-20)
(1.0026 -0.0182231 -1.05896e-19)
(1.08558 -0.00651804 2.76153e-20)
(1.15277 0.00281883 -1.26674e-19)
(1.20407 0.00914289 -1.52488e-20)
(1.24046 0.0124714 -7.64918e-21)
(1.26357 0.0129809 1.6264e-20)
(1.27566 0.0112407 -1.3916e-19)
(1.27899 0.00774392 -1.69499e-19)
(1.27631 0.00361363 -3.6238e-20)
(1.26899 -0.00151656 -4.77432e-20)
(1.26042 -0.00423758 -2.39871e-20)
(1.24875 -0.0108286 -1.85265e-20)
(0.0497803 -0.0253958 -1.41263e-19)
(0.165334 -0.0577123 4.41759e-20)
(0.295057 -0.0683099 2.20032e-19)
(0.428734 -0.0713184 -2.66259e-19)
(0.563357 -0.0641054 1.11206e-19)
(0.693014 -0.0534204 -3.04226e-19)
(0.814981 -0.0390407 8.13967e-20)
(0.92534 -0.0244608 -5.78493e-20)
(1.02196 -0.0103189 6.24487e-20)
(1.10285 0.00160359 9.10812e-20)
(1.16741 0.010821 1.45596e-19)
(1.21582 0.0167515 2.5166e-19)