/*--------------------------------*- C++ -*----------------------------------*\
  =========                 |
  \\      /  F ield         | OpenFOAM: The Open Source CFD Toolbox
   \\    /   O peration     | Website:  https://openfoam.org
    \\  /    A nd           | Version:  7
     \\/     M anipulation  |
\*---------------------------------------------------------------------------*/
FoamFile
{
    version     2.0;
    format      ascii;
    class       surfaceScalarField;
    location    "20";
    object      phi;
}
// * * * * * * * * * * * * * * * * * * * * * * * * * * * * * * * * * * * * * //

dimensions      [0 3 -1 0 0 0 0];

internalField   nonuniform List<scalar> 
5139
(
-0.0329921
0.00126249
-0.032974
0.00110033
-0.0329413
0.000938834
-0.0328943
0.000778111
-0.0328332
0.000618283
-0.0327583
0.000459461
-0.0326697
0.000301747
-0.0325677
0.000145552
-0.0324528
-9.66158e-06
-0.032325
-0.000163499
-0.0321848
-0.000315887
-0.0320325
-0.000466759
-0.000616058
0.000804826
0.000297489
-0.000800567
0.000811217
0.000453069
0.000819758
0.000609743
0.000830464
0.000767406
0.000843348
0.000925949
0.000858424
0.00108526
0.000875701
0.00124522
0.000895188
0.00140569
0.000916892
0.00156656
0.000940818
0.0017277
0.00096697
0.00188896
0.000995348
0.00205023
0.00102595
0.00221136
0.00105878
0.00237222
0.00109383
0.00253269
0.00269263
0.000810272
0.000293205
-0.000805988
0.000816703
0.000446638
0.000825298
0.000601147
0.000836073
0.000756631
0.000849041
0.000912982
0.000864214
0.00107009
0.000881603
0.00122783
0.000901216
0.00138608
0.000923061
0.00154472
0.000947142
0.00170362
0.000973464
0.00186264
0.00100203
0.00202167
0.00103283
0.00218055
0.00106587
0.00233918
0.00110115
0.00249741
0.00265512
0.000815754
0.000288894
-0.000811444
0.000822225
0.000440167
0.000830876
0.000592497
0.000841719
0.000745787
0.000854771
0.00089993
0.000870042
0.00105481
0.000887544
0.00121032
0.000907285
0.00136634
0.000929272
0.00152273
0.000953509
0.00167938
0.000980001
0.00183615
0.00100875
0.00199292
0.00103975
0.00214955
0.00107301
0.00230593
0.00110851
0.00246191
0.00114626
0.00261738
0.00277221
0.000821272
0.000284558
-0.000816936
0.000827784
0.000433654
0.000836489
0.000583792
0.000847403
0.000734874
0.000860538
0.000886794
0.000875909
0.00103944
0.000893524
0.00119271
0.000913393
0.00134647
0.000935523
0.0015006
0.000959918
0.00165498
0.000986583
0.00180949
0.00101552
0.00196398
0.00104672
0.00211835
0.00108019
0.00227245
0.00111592
0.00242618
0.00115391
0.00257939
0.00273197
0.000826826
0.000280196
-0.000822464
0.000833379
0.000427102
0.000842139
0.000575032
0.000853123
0.00072389
0.000866344
0.000873574
0.000881814
0.00102397
0.000899544
0.00117498
0.000919542
0.00132647
0.000941816
0.00147833
0.00096637
0.00163043
0.000993207
0.00178265
0.00102233
0.00193486
0.00105374
0.00208694
0.00108742
0.00223877
0.00112339
0.00239021
0.00116162
0.00254115
0.00120212
0.00269148
0.00284106
0.000832417
0.000275808
-0.000828029
0.000839011
0.000420508
0.000847827
0.000566216
0.000858881
0.000712836
0.000872187
0.000860268
0.000887757
0.0010084
0.000905602
0.00115713
0.000925731
0.00130634
0.00094815
0.00145591
0.000972863
0.00160571
0.000999876
0.00175564
0.00102919
0.00190555
0.0010608
0.00205533
0.0010947
0.00220486
0.0011309
0.00235401
0.00116939
0.00250267
0.00121015
0.00265072
0.00279803
0.000838045
0.000271394
-0.000833631
0.00084468
0.000413874
0.000853552
0.000557344
0.000864677
0.000701711
0.000878068
0.000846876
0.00089374
0.000992733
0.000911701
0.00113917
0.00093196
0.00128608
0.000954525
0.00143334
0.0009794
0.00158084
0.00100659
0.00172845
0.00103609
0.00187605
0.00106791
0.00202352
0.00110203
0.00217073
0.00113847
0.00231758
0.0011772
0.00246394
0.00121822
0.00260969
0.00126153
0.00275473
0.00289893
0.000843711
0.000266954
-0.00083927
0.000850386
0.000407198
0.000859314
0.000548416
0.00087051
0.000690515
0.000883989
0.000833397
0.000899761
0.00097696
0.000917839
0.0011211
0.00093823
0.00126569
0.000960942
0.00141063
0.000985979
0.0015558
0.00101334
0.00170108
0.00104304
0.00184635
0.00107506
0.00199149
0.00110941
0.00213638
0.00114608
0.00228091
0.00118507
0.00242495
0.00122636
0.0025684
0.00126994
0.00271114
0.00285307
0.000849414
0.000262487
-0.000844947
0.00085613
0.000400482
0.000865115
0.000539432
0.000876382
0.000679247
0.000889948
0.000819832
0.000905822
0.000961085
0.000924018
0.0011029
0.000944542
0.00124517
0.000967402
0.00138777
0.000992602
0.0015306
0.00102015
0.00167354
0.00105003
0.00181646
0.00108227
0.00195926
0.00111684
0.00210181
0.00115375
0.002244
0.00119298
0.00238572
0.00123454
0.00252685
0.00127841
0.00266728
0.00280691
0.000855154
0.000257995
-0.000850662
0.000861912
0.000393724
0.000870953
0.00053039
0.000882293
0.000667907
0.000895946
0.00080618
0.000911924
0.000945107
0.000930237
0.00108459
0.000950895
0.00122451
0.000973903
0.00136476
0.000999268
0.00150524
0.00102699
0.00164582
0.00105707
0.00178638
0.00108952
0.00192682
0.00112431
0.00206701
0.00116146
0.00220685
0.00120096
0.00234622
0.00124278
0.00248502
0.00128694
0.00262313
0.0013334
0.00276044
0.00289687
0.000860933
0.000253477
-0.000856415
0.000867733
0.000386924
0.00087683
0.000521293
0.000888243
0.000656495
0.000901983
0.000792439
0.000918064
0.000929026
0.000936497
0.00106615
0.000957289
0.00120372
0.000980448
0.00134161
0.00100598
0.00147971
0.00103388
0.00161791
0.00106416
0.0017561
0.00109682
0.00189416
0.00113184
0.00203199
0.00116923
0.00216946
0.00120898
0.00230647
0.00125108
0.00244292
0.00129552
0.00257869
0.00134228
0.00271368
0.00284779
0.00086675
0.000248932
-0.000862206
0.000873592
0.000380083
0.000882747
0.000512137
0.000894232
0.00064501
0.000908061
0.00077861
0.000924246
0.000912841
0.000942798
0.0010476
0.000963726
0.00118279
0.000987036
0.0013183
0.00101273
0.00145401
0.00104082
0.00158982
0.0010713
0.00172562
0.00110416
0.0018613
0.00113942
0.00199674
0.00117705
0.00213183
0.00121706
0.00226647
0.00125943
0.00240054
0.00130416
0.00253396
0.00135123
0.00266661
0.00140062
0.0027984
0.00292922
0.000872607
0.000244361
-0.000868036
0.00087949
0.0003732
0.000888702
0.000502925
0.00090026
0.000633452
0.000914178
0.000764692
0.000930468
0.000896551
0.000949141
0.00102893
0.000970205
0.00116173
0.000993667
0.00129483
0.00101953
0.00142815
0.0010478
0.00156155
0.00107848
0.00169495
0.00111156
0.00182822
0.00114704
0.00196125
0.00118492
0.00209395
0.00122519
0.0022262
0.00126784
0.0023579
0.00131286
0.00248894
0.00136024
0.00261923
0.00140995
0.00274868
0.00287718
0.000878502
0.000239765
-0.000873905
0.000885427
0.000366275
0.000894697
0.000493655
0.000906329
0.00062182
0.000920336
0.000750685
0.000936732
0.000880156
0.000955526
0.00101014
0.000976727
0.00114052
0.00100034
0.00127122
0.00102638
0.00140211
0.00105483
0.0015331
0.00108571
0.00166407
0.00111901
0.00179492
0.00115472
0.00192554
0.00119285
0.00205582
0.00123338
0.00218566
0.00127631
0.00231497
0.00132162
0.00244363
0.0013693
0.00257155
0.00141934
0.00269864
0.00147172
0.00282481
0.00294995
0.000884437
0.000235142
-0.000879814
0.000891404
0.000359309
0.000900732
0.000484326
0.000912438
0.000610115
0.000926535
0.000736587
0.000943036
0.000863654
0.000961953
0.000991219
0.000983292
0.00111918
0.00100706
0.00124745
0.00103327
0.00137591
0.00106191
0.00150446
0.00109299
0.00163299
0.0011265
0.0017614
0.00116245
0.00188959
0.00120083
0.00201744
0.00124162
0.00214487
0.00128483
0.00227176
0.00133044
0.00239802
0.00137843
0.00252356
0.0014288
0.00264828
0.00148152
0.00277209
0.00153657
0.0028949
0.00301663
0.000890412
0.000230493
-0.000885763
0.000897421
0.0003523
0.000906807
0.00047494
0.000918587
0.000598335
0.000932775
0.0007224
0.000949383
0.000847046
0.000968422
0.00097218
0.0009899
0.00109771
0.00101382
0.00122352
0.0010402
0.00134953
0.00106903
0.00147563
0.00110031
0.00160171
0.00113405
0.00172767
0.00117023
0.0018534
0.00120886
0.00197882
0.00124992
0.0021038
0.00129341
0.00222827
0.00133932
0.00235212
0.00138762
0.00247525
0.00143832
0.00259758
0.00149138
0.00271902
0.00154679
0.00283949
0.00295889
0.000896427
0.000225818
-0.000891752
0.000903478
0.000345249
0.000912923
0.000465495
0.000924777
0.00058648
0.000939056
0.000708121
0.000955772
0.00083033
0.000974934
0.000953018
0.000996553
0.00107609
0.00102063
0.00119944
0.00104718
0.00132299
0.0010762
0.00144661
0.00110769
0.00157022
0.00114164
0.00169371
0.00117806
0.00181698
0.00121694
0.00193994
0.00125827
0.00206247
0.00130205
0.0021845
0.00134825
0.00230591
0.00139688
0.00242663
0.0014479
0.00254656
0.00150131
0.00266561
0.00155708
0.00278371
0.0016152
0.00290078
0.00301672
0.000902482
0.000221117
-0.000897781
0.000909576
0.000338156
0.000919079
0.000455992
0.000931009
0.00057455
0.000945379
0.00069375
0.000962203
0.000813507
0.00098149
0.000933731
0.00100325
0.00105433
0.00102749
0.00117521
0.00105421
0.00129626
0.00108342
0.0014174
0.00111511
0.00153853
0.00114929
0.00165953
0.00118595
0.00178032
0.00122508
0.0019008
0.00126668
0.00202087
0.00131075
0.00214043
0.00135725
0.0022594
0.00140619
0.00237769
0.00145755
0.0024952
0.00151131
0.00261186
0.00156745
0.00272758
0.00162594
0.00284228
0.00295589
0.000908579
0.000216391
-0.000903852
0.000915715
0.00033102
0.000925277
0.000446429
0.000937282
0.000562545
0.000951745
0.000679288
0.000968677
0.000796575
0.000988089
0.000914319
0.00100999
0.00103243
0.00103439
0.00115081
0.00106128
0.00126937
0.00109068
0.00138801
0.00112258
0.00150663
0.00115699
0.00162513
0.00119388
0.00174342
0.00123328
0.00186141
0.00127515
0.00197899
0.0013195
0.00209608
0.00136631
0.00221259
0.00141557
0.00232843
0.00146727
0.00244351
0.00152138
0.00255775
0.00157788
0.00267107
0.00163676
0.0027834
0.00169799
0.00289466
0.00300477
0.000914717
0.000211638
-0.000909964
0.000921895
0.000323841
0.000931517
0.000436808
0.000943598
0.000550464
0.000958153
0.000664733
0.000975194
0.000779534
0.000994732
0.00089478
0.00101678
0.00101038
0.00104133
0.00112625
0.0010684
0.0012423
0.001098
0.00135841
0.00113011
0.00147452
0.00116473
0.0015905
0.00120188
0.00170628
0.00124153
0.00182176
0.00128368
0.00193684
0.00132832
0.00205144
0.00137543
0.00216547
0.00142502
0.00227884
0.00147705
0.00239147
0.00153151
0.00250328
0.00158839
0.0026142
0.00164765
0.00272413
0.00170929
0.00283303
0.0029408
0.000920896
0.000206859
-0.000916117
0.000928117
0.000316621
0.000937798
0.000427126
0.000949955
0.000538307
0.000964603
0.000650085
0.000981755
0.000762383
0.00100142
0.000875115
0.00102361
0.000988197
0.00104832
0.00110154
0.00107557
0.00121505
0.00110536
0.00132863
0.00113768
0.00144219
0.00117253
0.00155565
0.00120992
0.0016689
0.00124983
0.00178185
0.00129226
0.00189442
0.00133719
0.00200651
0.00138462
0.00211804
0.00143453
0.00222893
0.0014869
0.0023391
0.00154172
0.00244846
0.00159897
0.00255695
0.00165862
0.00266448
0.00172066
0.00277099
0.00178505
0.00287641
0.00298067
0.000927117
0.000202054
-0.000922313
0.000934381
0.000309357
0.000944122
0.000417386
0.000956356
0.000526073
0.000971098
0.000635343
0.000988359
0.000745121
0.00100815
0.000855323
0.00103048
0.000965865
0.00105536
0.00107666
0.00108279
0.00118762
0.00111277
0.00129865
0.0011453
0.00140966
0.00118039
0.00152056
0.00121802
0.00163127
0.00125819
0.00174168
0.0013009
0.00185171
0.00134613
0.00196128
0.00139387
0.00207031
0.0014441
0.0021787
0.00149682
0.00228638
0.001552
0.00239328
0.00160962
0.00249932
0.00166967
0.00260444
0.00173211
0.00270855
0.00179692
0.00281159
0.00186408
0.00291351
0.00301422
0.000933381
0.000197224
-0.000928551
0.000940688
0.00030205
0.000950489
0.000407585
0.0009628
0.000513762
0.000977635
0.000620508
0.000995008
0.000727748
0.00101493
0.000835402
0.00103741
0.000943387
0.00106245
0.00105162
0.00109005
0.00116001
0.00112023
0.00126847
0.00115298
0.00137691
0.00118829
0.00148525
0.00122617
0.00159339
0.00126661
0.00170124
0.0013096
0.00180873
0.00135512
0.00191576
0.00140317
0.00202225
0.00145374
0.00212813
0.0015068
0.00223332
0.00156235
0.00233774
0.00162035
0.00244132
0.00168079
0.002544
0.00174364
0.00264569
0.00180888
0.00274635
0.00187648
0.0028459
0.00294429
0.000939688
0.000192367
-0.000934832
0.000947038
0.0002947
0.000956899
0.000397724
0.000969287
0.000501373
0.000984218
0.000605578
0.0010017
0.000710263
0.00102175
0.000815352
0.00104438
0.000920764
0.00106958
0.00102642
0.00109737
0.00113222
0.00112774
0.0012381
0.00116071
0.00134395
0.00119625
0.0014497
0.00123438
0.00155526
0.00127509
0.00166054
0.00131835
0.00176546
0.00136418
0.00186993
0.00141255
0.00197388
0.00146345
0.00207723
0.00151686
0.00217991
0.00157277
0.00228183
0.00163115
0.00238294
0.00169198
0.00248316
0.00175525
0.00258243
0.00182092
0.00268068
0.00188897
0.00277786
0.00195936
0.0028739
0.00296874
0.000946038
0.000187485
-0.000941156
0.000953431
0.000287307
0.000963352
0.000387803
0.000975819
0.000488907
0.000990844
0.000590552
0.00100844
0.000692666
0.00102862
0.000795172
0.00105139
0.000897993
0.00107676
0.00100105
0.00110473
0.00110425
0.00113531
0.00120752
0.00116849
0.00131077
0.00120427
0.00141392
0.00124265
0.00151688
0.00128362
0.00161957
0.00132717
0.0017219
0.0013733
0.00182381
0.00142199
0.0019252
0.00147322
0.002026
0.00152698
0.00212615
0.00158326
0.00222556
0.00164202
0.00232417
0.00170326
0.00242192
0.00176694
0.00251875
0.00183305
0.00261458
0.00190154
0.00270936
0.0019724
0.00280304
0.00204559
0.00289555
0.00298684
0.000952432
0.000182576
-0.000947524
0.000959868
0.000279871
0.00096985
0.000377821
0.000982394
0.000476363
0.000997516
0.000575431
0.00101523
0.000674955
0.00103554
0.000774861
0.00105846
0.000875073
0.00108399
0.000975512
0.00111215
0.0010761
0.00114292
0.00117674
0.00117632
0.00127737
0.00121234
0.0013779
0.00125097
0.00147825
0.00129221
0.00157833
0.00133605
0.00167806
0.00138248
0.00177737
0.00143149
0.00187619
0.00148306
0.00197443
0.00153718
0.00207203
0.00159382
0.00216891
0.00165298
0.00226502
0.00171462
0.00236028
0.00177872
0.00245464
0.00184526
0.00254804
0.0019142
0.00264041
0.00198553
0.00273171
0.00205921
0.00282187
0.00291085
0.00095887
0.000177642
-0.000953936
0.000966349
0.000272392
0.000976392
0.000367778
0.000989015
0.00046374
0.00100423
0.000560213
0.00102206
0.00065713
0.0010425
0.000754419
0.00106557
0.000852004
0.00109127
0.00094981
0.00111961
0.00104776
0.00115059
0.00114577
0.0011842
0.00124376
0.00122046
0.00134165
0.00125934
0.00143936
0.00130086
0.00153681
0.00134499
0.00163393
0.00139173
0.00173064
0.00144106
0.00182686
0.00149297
0.00192252
0.00154744
0.00201755
0.00160446
0.00211189
0.001664
0.00220548
0.00172605
0.00229824
0.00179058
0.00239012
0.00185755
0.00248106
0.00192696
0.00257101
0.00199876
0.00265991
0.00207292
0.00274771
0.00214942
0.00283435
0.00291979
0.000965352
0.000172682
-0.000960392
0.000972875
0.000264869
0.000982979
0.000357674
0.000995681
0.000451038
0.001011
0.000544899
0.00102893
0.000639191
0.00104951
0.000733844
0.00107273
0.000828785
0.0010986
0.00092394
0.00112712
0.00101923
0.0011583
0.00111458
0.00119214
0.00120992
0.00122864
0.00130516
0.00126778
0.00140022
0.00130957
0.00149503
0.00135399
0.00158951
0.00140103
0.00168359
0.00145069
0.0017772
0.00150294
0.00187027
0.00155778
0.00196272
0.00161517
0.0020545
0.00167511
0.00214554
0.00173757
0.00223578
0.00180252
0.00232517
0.00186994
0.00241364
0.0019398
0.00250115
0.00201207
0.00258763
0.00208673
0.00267305
0.00216374
0.00275734
0.00224306
0.00284047
0.00292237
0.000971879
0.000167696
-0.000966893
0.000979446
0.000257302
0.000989612
0.000347508
0.00100239
0.000438257
0.0010178
0.000529488
0.00103586
0.000621137
0.00105657
0.000713136
0.00107994
0.000805415
0.00110598
0.000897902
0.00113469
0.000990521
0.00116607
0.0010832
0.00120014
0.00117586
0.00123687
0.00126842
0.00127627
0.00136082
0.00131833
0.00145296
0.00136305
0.00154479
0.00141041
0.00163623
0.00146039
0.00172721
0.00151299
0.00181767
0.00156819
0.00190752
0.00162596
0.00199673
0.00168629
0.00208521
0.00174916
0.00217291
0.00181454
0.00225979
0.00188241
0.00234578
0.00195273
0.00243082
0.00202549
0.00251488
0.00210064
0.0025979
0.00217816
0.00267983
0.002258
0.00276062
0.00234015
0.00284022
0.0029186
0.000978452
0.000162685
-0.00097344
0.000986062
0.000249691
0.00099629
0.00033728
0.00100915
0.000425395
0.00102466
0.000513978
0.00104283
0.000602966
0.00106367
0.000692294
0.0010872
0.000781893
0.0011134
0.000871692
0.00114231
0.000961621
0.0011739
0.0010516
0.00120818
0.00114157
0.00124516
0.00123144
0.00128482
0.00132115
0.00132716
0.00141062
0.00137217
0.00149978
0.00141984
0.00158856
0.00147016
0.0016769
0.00152311
0.00176472
0.00157867
0.00185196
0.00163683
0.00193857
0.00169756
0.00202448
0.00176084
0.00210963
0.00182665
0.00219398
0.00189497
0.00227746
0.00196576
0.00236003
0.00203899
0.00244164
0.00211464
0.00252225
0.00219268
0.00260179
0.00227306
0.00268024
0.00235575
0.00275753
0.00283363
0.00098507
0.000157647
-0.000980033
0.000992725
0.000242037
0.00100301
0.000326991
0.00101596
0.000412454
0.00103156
0.00049837
0.00104985
0.000584679
0.00107083
0.000671317
0.0010945
0.000758217
0.00112088
0.000845311
0.00114997
0.000932531
0.00118178
0.0010198
0.00121629
0.00110706
0.00125351
0.00119422
0.00129343
0.00128123
0.00133605
0.001368
0.00138136
0.00145447
0.00142935
0.00154058
0.00148
0.00162625
0.0015333
0.00171142
0.00158922
0.00179603
0.00164777
0.00188003
0.0017089
0.00196334
0.0017726
0.00204593
0.00183885
0.00212773
0.00190762
0.00220869
0.00197888
0.00228877
0.0020526
0.00236792
0.00212875
0.00244609
0.0022073
0.00252324
0.00228822
0.00259932
0.00237147
0.00267429
0.002457
0.00274809
0.0028207
0.000991735
0.000152584
-0.000986671
0.000999433
0.000234339
0.00100979
0.000316639
0.00102281
0.000399432
0.00103851
0.000482663
0.00105692
0.000566274
0.00107803
0.000650203
0.00110186
0.000734387
0.00112842
0.000818758
0.0011577
0.00090325
0.00118971
0.000987793
0.00122445
0.00107232
0.00126191
0.00115676
0.0013021
0.00124104
0.001345
0.0013251
0.00139061
0.00140887
0.00143892
0.00149228
0.0014899
0.00157526
0.00154355
0.00165777
0.00159985
0.00173973
0.00165878
0.0018211
0.00172032
0.0019018
0.00178445
0.0019818
0.00185114
0.00206104
0.00192036
0.00213947
0.00199209
0.00221704
0.0020663
0.00229371
0.00214296
0.00236943
0.00222204
0.00244417
0.00230349
0.00251786
0.00238729
0.00259048
0.0024734
0.00266198
0.00256178
0.00273232
0.00280144
0.000998446
0.000147495
-0.000993357
0.00100619
0.000226596
0.0010166
0.000306224
0.00102971
0.000386329
0.00104551
0.000466857
0.00106404
0.000547751
0.00108529
0.000628954
0.00110927
0.000710402
0.001136
0.000792031
0.00116547
0.000873776
0.00119769
0.000955572
0.00123266
0.00103735
0.00127038
0.00111904
0.00131083
0.00120059
0.00135402
0.00128191
0.00139993
0.00136295
0.00144855
0.00144365
0.00149988
0.00152394
0.00155389
0.00160376
0.00161056
0.00168306
0.00166988
0.00176178
0.00173183
0.00183986
0.00179638
0.00191725
0.00186351
0.00199391
0.00193319
0.00206979
0.0020054
0.00214483
0.0020801
0.00221901
0.00215727
0.00229227
0.00223687
0.00236456
0.00231887
0.00243586
0.00240324
0.00250612
0.00248992
0.0025753
0.00257889
0.00264335
0.00267011
0.00271023
0.0027759
0.0010052
0.000142379
-0.00100009
0.00101299
0.000218809
0.00102347
0.000295746
0.00103665
0.000373144
0.00105256
0.00045095
0.0010712
0.00052911
0.00109259
0.000607566
0.00111673
0.00068626
0.00114363
0.000765129
0.0011733
0.000844109
0.00120573
0.000923138
0.00124093
0.00100215
0.0012789
0.00108108
0.00131962
0.00115986
0.0013631
0.00123844
0.00140931
0.00131674
0.00145826
0.0013947
0.00150992
0.00147228
0.00156429
0.0015494
0.00162134
0.00162601
0.00168106
0.00170206
0.00174342
0.0017775
0.0018084
0.00185227
0.00187597
0.00192633
0.00194612
0.00199964
0.00201881
0.00207215
0.00209401
0.00214381
0.00217169
0.00221458
0.00225182
0.00228443
0.00233437
0.00235332
0.00241929
0.0024212
0.00250656
0.00248803
0.00259613
0.00255378
0.00268796
0.0026184
0.00268185
0.00101201
0.000137238
-0.00100687
0.00101984
0.000210977
0.00103038
0.000285206
0.00104365
0.000359877
0.00105966
0.000434942
0.00107842
0.000510349
0.00109995
0.000586041
0.00112424
0.000661961
0.00115132
0.00073805
0.00118118
0.000814247
0.00121383
0.00089049
0.00124926
0.000966717
0.00128748
0.00104286
0.00132847
0.00111887
0.00137224
0.00119467
0.00141876
0.00127021
0.00146803
0.00134543
0.00152004
0.00142027
0.00157477
0.00149467
0.0016322
0.00156858
0.00169231
0.00164195
0.00175509
0.00171472
0.0018205
0.00178686
0.00188852
0.00185831
0.00195914
0.00192903
0.00203231
0.00199897
0.00210801
0.0020681
0.00218621
0.00213638
0.00226688
0.00220377
0.00234997
0.00227022
0.00243547
0.0023357
0.00252332
0.00240018
0.00261349
0.00246361
0.00270593
0.00252595
0.00258717
0.00101887
0.000132071
-0.0010137
0.00102674
0.000203101
0.00103735
0.000274601
0.0010507
0.000346528
0.0010668
0.000418833
0.00108569
0.000491467
0.00110735
0.000564376
0.00113181
0.000637504
0.00115906
0.000710794
0.00118912
0.000784189
0.00122199
0.000857627
0.00125765
0.00093105
0.00129612
0.0010044
0.00133739
0.00107761
0.00138144
0.00115062
0.00142827
0.00122338
0.00147787
0.00129583
0.00153023
0.00136791
0.00158532
0.00143958
0.00164313
0.00151077
0.00170365
0.00158143
0.00176684
0.00165153
0.00183269
0.00172101
0.00190117
0.00178983
0.00197225
0.00185794
0.00204591
0.00192531
0.00212212
0.0019919
0.00220084
0.00205766
0.00228204
0.00212256
0.0023657
0.00218657
0.00245176
0.00224964
0.0025402
0.00231174
0.00263098
0.00237284
0.00272404
0.00243289
0.00249185
0.00102577
0.000126878
-0.00102058
0.00103369
0.000195179
0.00104436
0.000263933
0.00105779
0.000333096
0.001074
0.000402622
0.001093
0.000472464
0.00111481
0.00054257
0.00113943
0.000612887
0.00116686
0.00068336
0.00119712
0.000753932
0.0012302
0.000824547
0.0012661
0.000895147
0.00130482
0.000965673
0.00134636
0.00103607
0.00139071
0.00110627
0.00143785
0.00117624
0.00148779
0.0012459
0.00154049
0.00131521
0.00159595
0.00138412
0.00165415
0.00145257
0.00171506
0.00152052
0.00177868
0.00158792
0.00184497
0.00165472
0.0019139
0.00172089
0.00198546
0.00178639
0.00205961
0.00185116
0.00213633
0.00191518
0.00221558
0.00197841
0.00229732
0.00204082
0.00238154
0.00210236
0.00246818
0.002163
0.00255721
0.00222271
0.00264859
0.00228145
0.00274229
0.00233919
0.00239589
0.00103272
0.000121659
-0.0010275
0.00104069
0.000187213
0.00105142
0.0002532
0.00106494
0.00031958
0.00108125
0.000386309
0.00110037
0.000453339
0.00112232
0.000520624
0.0011471
0.00058811
0.00117471
0.000655746
0.00120517
0.000723477
0.00123847
0.000791249
0.00127461
0.000859006
0.00131359
0.000926692
0.0013554
0.000994253
0.00140004
0.00106163
0.0014475
0.00112878
0.00149777
0.00119564
0.00155082
0.00126215
0.00160665
0.00132829
0.00166524
0.00139398
0.00172656
0.00145919
0.0017906
0.00152388
0.00185734
0.00158799
0.00192673
0.00165149
0.00199877
0.00171435
0.00207342
0.00177651
0.00215065
0.00183795
0.00223042
0.00189864
0.00231272
0.00195852
0.00239749
0.00201758
0.00248471
0.00207578
0.00257434
0.00213308
0.00266634
0.00218946
0.00276066
0.00224487
0.00229928
0.00103972
0.000116414
-0.00103448
0.00104774
0.000179201
0.00105853
0.000242403
0.00107213
0.000305981
0.00108855
0.000369892
0.0011078
0.000434092
0.00112989
0.000498535
0.00115482
0.000563171
0.00118262
0.00062795
0.00121328
0.000692821
0.00124679
0.00075773
0.00128317
0.000822625
0.00132241
0.000887453
0.00136451
0.00095216
0.00140945
0.00101669
0.00145722
0.001081
0.00150782
0.00114504
0.00156123
0.00120875
0.00161743
0.00127208
0.00167641
0.001335
0.00173815
0.00139746
0.00180262
0.00145941
0.00186979
0.00152081
0.00193966
0.00158163
0.00201218
0.00164183
0.00208732
0.00170137
0.00216507
0.00176021
0.00224538
0.00181832
0.00232822
0.00187568
0.00241357
0.00193224
0.00250137
0.00198797
0.0025916
0.00204285
0.00268422
0.00209684
0.00277918
0.00214991
0.00220202
0.00104678
0.000111143
-0.00104151
0.00105483
0.000171144
0.0010657
0.000231541
0.00107938
0.000292297
0.0010959
0.000353371
0.00111527
0.000414721
0.0011375
0.000476303
0.00116261
0.000538069
0.00119058
0.000599972
0.00122144
0.000661963
0.00125518
0.00072399
0.0012918
0.000786004
0.0013313
0.000847953
0.00137368
0.000909786
0.00141892
0.000971454
0.00146701
0.00103291
0.00151795
0.0010941
0.00157171
0.00115498
0.00162829
0.0012155
0.00168767
0.00127563
0.00174982
0.00133531
0.00181472
0.00139451
0.00188235
0.00145319
0.00195268
0.0015113
0.00202568
0.00156882
0.00210133
0.00162572
0.0021796
0.00168194
0.00226045
0.00173747
0.00234385
0.00179228
0.00242977
0.00184632
0.00251816
0.00189958
0.002609
0.00195202
0.00270223
0.0020036
0.00279783
0.00205431
0.00210411
0.00105388
0.000105846
-0.00104858
0.00106198
0.000163041
0.00107291
0.000220614
0.00108668
0.000278528
0.00110331
0.000336745
0.0011228
0.000395226
0.00114518
0.000453927
0.00117044
0.000512804
0.0011986
0.000571811
0.00122966
0.000630901
0.00126363
0.000690027
0.00130049
0.000749139
0.00134026
0.00080819
0.00138291
0.00086713
0.00142845
0.000925914
0.00147687
0.000984492
0.00152815
0.00104282
0.00158227
0.00110085
0.00163923
0.00115854
0.00169901
0.00121585
0.00176157
0.00127274
0.00182691
0.00132917
0.00189499
0.0013851
0.00196579
0.0014405
0.00203929
0.00149533
0.00211545
0.00154956
0.00219424
0.00160315
0.00227563
0.00165608
0.00235959
0.00170832
0.00244609
0.00175983
0.00253507
0.00181059
0.00262652
0.00186057
0.00272038
0.00190974
0.00281662
0.00195807
0.00200554
0.00106104
0.000100522
-0.00105571
0.00106918
0.000154892
0.00108018
0.000209621
0.00109403
0.000264674
0.00111076
0.000320015
0.00113038
0.000375606
0.0011529
0.000431406
0.00117833
0.000487373
0.00120668
0.000543465
0.00123795
0.000599635
0.00127214
0.000655838
0.00130925
0.00071203
0.00134927
0.000768162
0.00139221
0.00082419
0.00143806
0.000880068
0.0014868
0.000935752
0.00153842
0.000991197
0.00159291
0.00104636
0.00165025
0.0011012
0.00171043
0.00115568
0.00177341
0.00120976
0.00183919
0.0012634
0.00190773
0.00131656
0.00197901
0.00136922
0.002053
0.00142134
0.00212967
0.00147288
0.00220899
0.00152383
0.00229093
0.00157414
0.00237546
0.00162379
0.00246253
0.00167275
0.00255212
0.001721
0.00264418
0.00176851
0.00273867
0.00181524
0.00283556
0.00186118
0.0019063
0.00106824
9.51715e-05
-0.00106289
0.00107644
0.000146697
0.0010875
0.000198561
0.00110144
0.000250733
0.00111827
0.000303178
0.00113802
0.000355859
0.00116069
0.000408739
0.00118628
0.000461777
0.00121482
0.000514932
0.00124629
0.000568162
0.0012807
0.000621424
0.00131806
0.000674673
0.00135835
0.000727868
0.00140158
0.000780963
0.00144773
0.000833917
0.0014968
0.000886685
0.00154877
0.000939228
0.00160362
0.000991505
0.00166135
0.00104348
0.00172193
0.0010951
0.00178534
0.00114635
0.00185156
0.00119718
0.00192056
0.00124756
0.00199232
0.00129746
0.00206681
0.00134685
0.00214399
0.0013957
0.00222385
0.00144397
0.00230634
0.00149165
0.00239144
0.0015387
0.0024791
0.00158509
0.00256929
0.00163081
0.00266197
0.00167583
0.00275711
0.00172011
0.00285465
0.00176364
0.00180639
0.0010755
8.97946e-05
-0.00107012
0.00108374
0.000138455
0.00109487
0.000187436
0.0011089
0.000236706
0.00112584
0.000286235
0.00114571
0.000335986
0.00116853
0.000385925
0.00119429
0.000436013
0.00122301
0.000486211
0.00125469
0.000536481
0.00128934
0.00058678
0.00132694
0.000637069
0.0013675
0.000687305
0.00141102
0.000737447
0.00145748
0.000787456
0.00150688
0.00083729
0.00155919
0.000886911
0.00161442
0.00093628
0.00167253
0.00098536
0.00173352
0.00103412
0.00179736
0.00108251
0.00186402
0.00113052
0.00193349
0.00117809
0.00200573
0.00122522
0.00208072
0.00127186
0.00215843
0.00131799
0.00223883
0.00136357
0.00232188
0.0014086
0.00240755
0.00145303
0.0024958
0.00149684
0.0025866
0.00154001
0.00267991
0.00158252
0.00277568
0.00162434
0.00287388
0.00166544
0.00170581
0.00108281
8.4391e-05
-0.00107741
0.0010911
0.000130167
0.0011023
0.000176243
0.00111641
0.000222592
0.00113346
0.000269184
0.00115346
0.000315985
0.00117642
0.000362962
0.00120236
0.00041008
0.00123127
0.000457302
0.00126316
0.00050459
0.00129803
0.000551907
0.00133588
0.000599214
0.00137672
0.000646471
0.00142053
0.00069364
0.0014673
0.000740683
0.00151702
0.000787563
0.00156969
0.000834241
0.00162529
0.000880683
0.0016838
0.000926853
0.0017452
0.000972717
0.00180946
0.00101824
0.00187658
0.0010634
0.00194651
0.00110816
0.00201925
0.00115249
0.00209474
0.00119636
0.00217298
0.00123975
0.00225392
0.00128263
0.00233753
0.00132498
0.00242378
0.00136678
0.00251263
0.00140799
0.00260404
0.0014486
0.00269798
0.00148858
0.0027944
0.00152792
0.00289326
0.00156658
0.00160455
0.00109018
7.89605e-05
-0.00108475
0.00109852
0.000121831
0.00110978
0.000164983
0.00112398
0.000208391
0.00114114
0.000252025
0.00116127
0.000295855
0.00118438
0.000339851
0.00121048
0.000383978
0.00123958
0.000428202
0.00127168
0.000472489
0.00130679
0.000516803
0.00134489
0.000561106
0.001386
0.000605364
0.0014301
0.000649539
0.00147719
0.000693597
0.00152725
0.000737501
0.00158027
0.000781217
0.00163624
0.000824711
0.00169515
0.000867951
0.00175696
0.000910905
0.00182166
0.000953542
0.00188923
0.000995832
0.00195964
0.00103775
0.00203286
0.00107926
0.00210887
0.00112035
0.00218764
0.00116099
0.00226913
0.00120115
0.0023533
0.00124081
0.00244014
0.00127994
0.00252959
0.00131854
0.00262162
0.00135657
0.00271619
0.00139401
0.00281327
0.00143084
0.0029128
0.00146705
0.0015026
0.0010976
7.3503e-05
-0.00109214
0.00110599
0.000113448
0.00111731
0.000153656
0.0011316
0.000194101
0.00114887
0.000234757
0.00116913
0.000275596
0.00119239
0.000316589
0.00121866
0.000357705
0.00124796
0.000398911
0.00128027
0.000440175
0.00131561
0.000481465
0.00135397
0.000522745
0.00139535
0.000563982
0.00143975
0.000605143
0.00148715
0.000646194
0.00153755
0.000687102
0.00159093
0.000727836
0.00164728
0.000768362
0.00170658
0.000808651
0.00176881
0.000848674
0.00183395
0.000888401
0.00190198
0.000927806
0.00197286
0.000966862
0.00204658
0.00100554
0.00212311
0.00104383
0.00220241
0.00108169
0.00228445
0.00111911
0.0023692
0.00115606
0.00245662
0.00119252
0.00254668
0.00122848
0.00263934
0.00126391
0.00273455
0.00129879
0.00283228
0.00133311
0.00293249
0.00136684
0.00139996
0.00110508
6.80186e-05
-0.00109959
0.00111351
0.000105018
0.0011249
0.00014226
0.00113928
0.000179722
0.00115666
0.00021738
0.00117705
0.000255207
0.00120046
0.000293176