/*--------------------------------*- C++ -*----------------------------------*\
  =========                 |
  \\      /  F ield         | OpenFOAM: The Open Source CFD Toolbox
   \\    /   O peration     | Website:  https://openfoam.org
    \\  /    A nd           | Version:  7
     \\/     M anipulation  |
\*---------------------------------------------------------------------------*/
FoamFile
{
    version     2.0;
    format      ascii;
    class       volVectorField;
    location    "30";
    object      U;
}
// * * * * * * * * * * * * * * * * * * * * * * * * * * * * * * * * * * * * * //

dimensions      [0 1 -1 0 0 0 0];

internalField   nonuniform List<vector> 
42000
(
(-0.000834951 0.000172376 1.04344e-21)
(-0.00273946 0.000174428 -3.41757e-21)
(-0.00403406 2.7362e-05 1.77842e-21)
(-0.0032731 -0.000207664 -1.01481e-22)
(-0.000449661 -0.000476621 -3.27566e-21)
(0.00452344 -0.00075891 3.90563e-21)
(0.0114657 -0.00103866 3.42152e-21)
(0.0202014 -0.0013097 2.29695e-21)
(0.0305322 -0.00156825 -1.78979e-21)
(0.0422748 -0.00181333 2.29756e-21)
(0.0552645 -0.0020448 9.72148e-22)
(0.069356 -0.00226297 8.22921e-23)
(0.0844198 -0.00246778 -1.43261e-21)
(0.100339 -0.00265828 1.5643e-21)
(0.11699 -0.00283161 3.42018e-21)
(0.134255 -0.00298267 1.28173e-21)
(0.151931 -0.00310092 -2.59505e-21)
(0.169906 -0.00317631 -8.41353e-22)
(0.187609 -0.00317337 2.3915e-21)
(0.205213 -0.00312389 7.52474e-22)
(-0.000844346 0.00051524 2.95712e-21)
(-0.00272273 0.000519693 -1.46752e-21)
(-0.00395896 7.80024e-05 3.61424e-21)
(-0.0031245 -0.000626979 -1.67665e-21)
(-0.000215841 -0.00143331 1.23177e-20)
(0.00484872 -0.0022794 -1.50409e-22)
(0.0118872 -0.00311771 6.20518e-21)
(0.0207223 -0.00392974 -4.67105e-21)
(0.0311549 -0.00470422 6.07694e-21)
(0.0430011 -0.00543823 5.79846e-21)
(0.0560959 -0.00613131 -2.02998e-21)
(0.0702935 -0.00678443 4.72466e-21)
(0.0854644 -0.00739743 -9.61174e-21)
(0.101491 -0.00796748 -1.04974e-20)
(0.11825 -0.00848602 2.09435e-21)
(0.135623 -0.00893777 -4.29551e-21)
(0.153406 -0.00929122 3.40926e-21)
(0.171492 -0.00951604 -5.02048e-21)
(0.189285 -0.0095064 2.12408e-21)
(0.207034 -0.00935526 3.49193e-21)
(-0.000862868 0.000852503 -1.97154e-20)
(-0.00268873 0.000854172 -7.12166e-21)
(-0.00380816 0.000116249 -1.2861e-20)
(-0.00282671 -0.00105845 2.56939e-21)
(0.000252323 -0.0024006 -1.6265e-20)
(0.00549968 -0.00380818 -9.35198e-21)
(0.0127306 -0.00520217 -1.63657e-20)
(0.0217642 -0.00655197 -8.30747e-21)
(0.0324001 -0.00783885 1.87798e-21)
(0.0444533 -0.009058 -9.66083e-21)
(0.0577578 -0.0102087 -1.07354e-20)
(0.0721675 -0.0112926 2.26319e-21)
(0.087552 -0.0123095 1.05602e-20)
(0.103794 -0.0132547 1.19454e-20)
(0.120768 -0.014114 3.44007e-21)
(0.138357 -0.0148622 9.06307e-21)
(0.156352 -0.0154469 -1.27346e-20)
(0.174658 -0.015817 -8.7738e-21)
(0.192633 -0.0157982 1.13067e-20)
(0.210671 -0.0155372 2.26075e-21)
(-0.000889984 0.00118051 1.28105e-20)
(-0.00263642 0.00117074 1.10143e-20)
(-0.00358045 0.000133876 1.41352e-20)
(-0.00237852 -0.00151015 2.20796e-20)
(0.000955878 -0.00338552 2.04019e-20)
(0.00647714 -0.00535074 1.23661e-21)
(0.0139963 -0.00729564 2.9911e-22)
(0.0233272 -0.00917782 1.94093e-20)
(0.0342675 -0.0109712 -8.25259e-21)
(0.0466303 -0.0126693 1.09688e-20)
(0.0602487 -0.014271 6.76012e-21)
(0.0749755 -0.0157787 -2.05806e-20)
(0.0906795 -0.0171923 -4.78447e-21)
(0.107242 -0.0185052 -2.25726e-20)
(0.124538 -0.0196981 -1.64373e-20)
(0.14245 -0.0207354 8.12431e-21)
(0.160763 -0.0215448 5.48982e-21)
(0.179397 -0.0220536 5.85888e-21)
(0.197641 -0.0220214 -1.67588e-20)
(0.21611 -0.0216371 -8.97175e-21)
(-0.000924906 0.00149567 -3.94727e-21)
(-0.00256425 0.00146239 1.12762e-20)
(-0.00327403 0.000122819 2.14272e-20)
(-0.00177815 -0.00198999 -2.22637e-20)
(0.00189639 -0.00439493 -3.90384e-20)
(0.00778229 -0.00691241 -7.23488e-21)
(0.015685 -0.00940156 -2.89251e-21)
(0.0254113 -0.0118086 1.55289e-20)
(0.0367564 -0.0141003 -5.10196e-21)
(0.0495309 -0.0162684 -3.06038e-20)
(0.0635664 -0.0183119 -2.8182e-20)
(0.0787143 -0.0202338 1.71422e-20)
(0.0948424 -0.022034 1.08099e-20)
(0.111832 -0.0237045 3.21072e-20)
(0.129553 -0.0252206 2.24064e-20)
(0.147893 -0.0265371 -1.57613e-20)
(0.166626 -0.027562 -8.38229e-21)
(0.185694 -0.0282 2.21828e-20)
(0.204295 -0.028149 6.96973e-21)
(0.223333 -0.0276225 -2.63893e-21)
(-0.000966591 0.00179446 -3.05264e-21)
(-0.00247014 0.00172228 -3.74771e-20)
(-0.00288649 7.52145e-05 -4.84681e-20)
(-0.00102321 -0.00250563 -6.36401e-21)
(0.00307594 -0.00543546 2.47393e-20)
(0.00941674 -0.00849829 8.71813e-21)
(0.0177977 -0.0115231 9.96861e-21)
(0.0280168 -0.0144454 -1.46789e-20)
(0.0398662 -0.0172249 2.58287e-20)
(0.0531531 -0.0198519 -9.88181e-21)
(0.0677076 -0.0223252 4.16444e-20)
(0.0833794 -0.0246488 -5.21679e-21)
(0.100035 -0.0268228 -1.08235e-20)
(0.117553 -0.0288378 -2.06765e-21)
(0.135804 -0.0306641 -1.24262e-20)
(0.154674 -0.0322471 -5.10633e-21)
(0.173927 -0.0334757 1.45846e-20)
(0.193533 -0.034231 -1.4258e-20)
(0.212574 -0.034154 1.59399e-20)
(0.232315 -0.0334615 1.51233e-20)
(-0.00101375 0.00207345 1.94648e-20)
(-0.00235155 0.00194377 1.68136e-20)
(-0.00241488 -1.65512e-05 2.44603e-20)
(-0.000110763 -0.00306447 3.08838e-20)
(0.0044971 -0.00651348 4.10152e-20)
(0.0113824 -0.0101132 1.29957e-20)
(0.0203355 -0.0136633 -9.14696e-21)
(0.0311438 -0.017089 5.6044e-21)
(0.0435957 -0.0203434 -1.34687e-20)
(0.0574947 -0.0234156 1.89196e-20)
(0.0726685 -0.0263045 -2.35822e-20)
(0.088965 -0.0290147 9.39537e-21)
(0.106248 -0.031547 1.07282e-20)
(0.124397 -0.0338904 6.88405e-21)
(0.143277 -0.0360111 -1.63938e-20)
(0.162777 -0.037845 1.68188e-20)
(0.182647 -0.0392633 -1.4824e-20)
(0.202891 -0.0401214 1.04784e-20)
(0.222453 -0.04001 -7.35831e-21)
(0.243024 -0.0391225 -1.88654e-20)
(-0.00106484 0.00232935 -2.70215e-20)
(-0.00220543 0.00212046 1.32388e-20)
(-0.00185566 -0.000159787 -1.79647e-21)
(0.000962694 -0.0036736 -1.89723e-20)
(0.00616294 -0.00763501 -5.14377e-20)
(0.0136818 -0.0117617 3.84399e-20)
(0.0232998 -0.0158247 1.30336e-20)
(0.0347926 -0.01974 -2.21989e-21)
(0.0479439 -0.0234543 -3.60475e-21)
(0.0625528 -0.0269557 -1.6877e-20)
(0.0784445 -0.030243 3.78874e-20)
(0.0954644 -0.0333223 5.49604e-21)
(0.113474 -0.0361944 2.14169e-21)
(0.132351 -0.0388478 -4.85086e-21)
(0.151958 -0.0412442 2.15366e-20)
(0.172184 -0.0433109 -1.42856e-23)
(0.192765 -0.0449024 2.77362e-21)
(0.213743 -0.0458463 -3.98173e-21)
(0.2339 -0.0456911 -2.28924e-20)
(0.255424 -0.0445751 1.37176e-20)
(-0.00111812 0.00255899 2.63587e-20)
(-0.00202829 0.00224623 5.29432e-20)
(-0.00120476 -0.000361446 -6.25755e-20)
(0.0022012 -0.00433969 -4.95223e-20)
(0.00807697 -0.00880566 6.0884e-20)
(0.0163174 -0.0134478 -4.53191e-20)
(0.0266922 -0.0180096 9.38128e-21)
(0.0389633 -0.0223986 -7.98799e-21)
(0.0529092 -0.0265555 -4.26832e-20)
(0.068324 -0.0304676 4.34571e-20)
(0.08503 -0.0341341 -5.39111e-20)
(0.10287 -0.0375621 2.81228e-20)
(0.121702 -0.0407533 -2.08895e-21)
(0.141402 -0.0436951 3.86219e-20)
(0.161829 -0.0463461 -3.95422e-21)
(0.182874 -0.0486249 -2.20415e-20)
(0.204254 -0.0503707 -4.38749e-21)
(0.226056 -0.0513814 -9.8002e-21)
(0.246881 -0.0511719 -2.02468e-21)
(0.269469 -0.0497894 -9.96108e-21)
(-0.00117158 0.00275939 2.69758e-20)
(-0.00181617 0.00231531 -8.1386e-20)
(-0.000457587 -0.000628074 9.19007e-21)
(0.00360932 -0.00506899 9.4146e-20)
(0.0102432 -0.0100306 -2.26655e-20)
(0.0192924 -0.0151752 -4.76601e-21)
(0.0305145 -0.0202198 1.09208e-20)
(0.0436561 -0.0250646 -8.51284e-21)
(0.0584901 -0.0296447 4.01789e-20)
(0.0748047 -0.0339468 4.9363e-20)
(0.0924187 -0.0379706 8.93368e-20)
(0.111171 -0.0417246 6.07311e-21)
(0.130919 -0.0452113 -5.38629e-20)
(0.151534 -0.0484177 -1.60971e-20)
(0.17287 -0.0512995 -1.82432e-21)
(0.194821 -0.0537671 6.30693e-21)
(0.217085 -0.0556463 2.38323e-20)
(0.239796 -0.0567026 -1.49058e-20)
(0.261353 -0.0564274 3.51823e-20)
(0.285111 -0.0547365 2.55947e-20)
(-0.00122305 0.00292773 -7.54526e-20)
(-0.0015647 0.00232227 4.50404e-20)
(0.000390946 -0.000965759 2.11295e-20)
(0.00519208 -0.00586723 -4.09918e-20)
(0.0126659 -0.0113145 -6.88649e-22)
(0.02261 -0.016947 -3.78038e-21)
(0.0347685 -0.0224567 -5.55871e-20)
(0.0488712 -0.0277374 -7.17174e-21)
(0.0646846 -0.0327189 -6.8281e-20)
(0.0819904 -0.0373881 -2.85069e-20)
(0.100604 -0.0417451 -2.43283e-20)
(0.12036 -0.0458 -4.54983e-20)
(0.141111 -0.0495563 -1.60624e-20)
(0.162728 -0.0530009 -2.0764e-20)
(0.185059 -0.0560873 -3.58447e-21)
(0.207999 -0.0587182 2.82736e-20)
(0.231225 -0.0607078 8.90447e-21)
(0.254923 -0.0617864 1.94504e-20)
(0.277273 -0.0614337 -2.91078e-20)
(0.302293 -0.059389 -1.52745e-20)
(-0.00127013 0.00306137 6.15684e-20)
(-0.0012691 0.00226208 -4.81594e-20)
(0.0013464 -0.00138009 -2.61452e-20)
(0.00695501 -0.0067396 -1.38016e-21)
(0.0153501 -0.0126614 -7.86187e-20)
(0.0262739 -0.0187659 -4.41047e-20)
(0.0394563 -0.0247211 4.6662e-20)
(0.0546087 -0.0304157 -1.63334e-20)
(0.0714905 -0.0357751 7.33319e-20)
(0.0898763 -0.0407862 -4.01732e-20)
(0.109577 -0.0454501 -7.47079e-20)
(0.130423 -0.0497783 2.29415e-20)
(0.152264 -0.0537759 1.55457e-20)
(0.174965 -0.0574301 -3.09648e-20)
(0.198371 -0.0606925 -2.26852e-20)
(0.222377 -0.0634589 -2.74672e-20)
(0.246636 -0.065534 -5.43986e-20)
(0.271393 -0.0666098 1.37558e-20)
(0.294588 -0.0661674 -4.6142e-20)
(0.320953 -0.0637206 3.6836e-20)
(-0.00131025 0.00315793 3.92483e-20)
(-0.000924246 0.00213014 8.67391e-20)
(0.00241477 -0.00187613 8.91839e-21)
(0.00890404 -0.00769069 -1.567e-21)
(0.0183007 -0.0140748 1.01334e-19)
(0.030288 -0.0206339 7.06715e-20)
(0.0445801 -0.0270133 4.47054e-20)
(0.0608686 -0.033098 9.32905e-20)
(0.0789052 -0.0388095 -1.80353e-20)
(0.0984569 -0.0441352 6.4922e-20)
(0.119329 -0.0490774 9.11642e-20)
(0.141348 -0.0536494 -6.67487e-20)
(0.164359 -0.0578578 -1.58567e-20)
(0.188222 -0.0616904 -1.9687e-21)
(0.212777 -0.0650981 4.9766e-20)
(0.23792 -0.0679702 2.84731e-20)
(0.263278 -0.0701043 9.96705e-20)
(0.289158 -0.0711507 -5.24079e-20)
(0.313243 -0.0706062 3.46798e-20)
(0.341024 -0.0677065 -5.88742e-20)
(-0.00134065 0.00321514 -8.30734e-20)
(-0.000524642 0.00192237 -7.24442e-20)
(0.00360246 -0.00245834 -6.08393e-22)
(0.0110455 -0.00872444 3.21687e-20)
(0.0215233 -0.0155575 -1.04571e-19)
(0.0346563 -0.0225521 -3.67748e-20)
(0.050142 -0.0293327 2.05709e-21)
(0.0676508 -0.035782 -4.34212e-20)
(0.0869261 -0.0418178 6.84903e-20)
(0.107726 -0.047429 -4.88048e-20)
(0.129851 -0.0526188 -7.91621e-20)
(0.153122 -0.0574028 4.40194e-20)
(0.177378 -0.0617894 -5.15691e-21)
(0.202476 -0.0657674 4.75518e-20)
(0.228248 -0.0692876 -6.44187e-20)
(0.254593 -0.0722335 3.24242e-20)
(0.281108 -0.0743984 -6.087e-20)
(0.308166 -0.0753875 1.62717e-20)
(0.333178 -0.0747286 -2.68972e-20)
(0.36243 -0.0713239 1.87474e-20)
(-0.00135837 0.00323088 4.3408e-21)
(-6.45162e-05 0.00163532 -2.65598e-20)
(0.00491624 -0.00313055 6.25617e-20)
(0.0133861 -0.00984412 -3.05971e-20)
(0.0250237 -0.0171116 8.50899e-20)
(0.0393832 -0.0245214 2.78279e-20)
(0.0561443 -0.0316784 -7.30661e-20)
(0.074955 -0.0384647 1.17006e-21)
(0.0955497 -0.0447953 -1.68866e-20)
(0.117677 -0.0506606 -8.93085e-20)
(0.141132 -0.0560655 7.51769e-20)
(0.165728 -0.0610278 -8.65754e-21)
(0.191301 -0.0655581 -3.91552e-21)
(0.217701 -0.0696464 -3.62111e-20)
(0.244752 -0.0732446 7.24055e-20)
(0.272354 -0.0762307 -5.82571e-20)
(0.300076 -0.0783969 -3.80525e-20)
(0.328359 -0.0792995 1.10448e-20)
(0.354329 -0.0785142 3.41572e-20)
(0.385095 -0.0745516 5.08485e-20)
(-0.00136033 0.00320361 1.74352e-20)
(0.000462318 0.00126572 -1.768e-20)
(0.00636319 -0.00389597 2.49766e-20)
(0.0159329 -0.0110523 -9.82165e-20)
(0.0288079 -0.0187385 6.96718e-20)
(0.044473 -0.0265415 -2.55672e-20)
(0.0625892 -0.0340486 3.42996e-20)
(0.082781 -0.0411427 3.26937e-20)
(0.104773 -0.0477366 -3.36426e-20)
(0.128303 -0.053823 7.74131e-20)
(0.15316 -0.0594085 -5.20992e-20)
(0.179152 -0.0645136 -2.31733e-20)
(0.206105 -0.0691511 -3.40274e-20)
(0.233867 -0.0733129 2.60633e-20)
(0.262253 -0.0769528 -5.61457e-21)
(0.291162 -0.0799441 5.76456e-20)
(0.320132 -0.0820809 3.12753e-20)
(0.349676 -0.082867 6.04523e-21)
(0.376625 -0.0819438 -1.91449e-20)
(0.408931 -0.0773703 -7.85683e-21)
(-0.00134348 0.00313209 2.58897e-20)
(0.00106225 0.000810781 1.08e-19)
(0.00795075 -0.0047571 -8.09078e-20)
(0.0186931 -0.0123506 1.02921e-19)
(0.0328821 -0.0204387 -1.66744e-19)
(0.0499303 -0.0286115 -2.89405e-20)
(0.0694791 -0.0364407 -3.62412e-22)
(0.0911279 -0.0438116 -7.45236e-20)
(0.114591 -0.0506356 9.43442e-21)
(0.139596 -0.0569083 1.53712e-20)
(0.165923 -0.0626383 1.0294e-20)
(0.193374 -0.0678488 -4.23922e-20)
(0.221768 -0.0725556 2.86485e-20)
(0.250946 -0.0767526 -2.71737e-20)
(0.280714 -0.0803964 -1.31393e-19)
(0.310971 -0.0833564 7.36458e-21)
(0.341222 -0.0854321 -4.69828e-21)
(0.372054 -0.0860711 -3.94863e-20)
(0.399993 -0.0849995 2.48869e-20)
(0.433852 -0.0797632 -2.45817e-20)
(-0.00130454 0.00301501 -1.85456e-20)
(0.00174183 0.000268588 -7.58236e-21)
(0.00968659 -0.00571571 8.00398e-21)
(0.0216744 -0.0137402 4.59423e-20)
(0.0372528 -0.022212 8.32903e-20)
(0.0557597 -0.0307299 9.49669e-20)
(0.0768159 -0.0388514 -7.60907e-20)
(0.0999949 -0.0464665 3.73619e-20)
(0.124999 -0.0534858 -4.69101e-20)
(0.151546 -0.0599082 -4.85496e-20)
(0.179407 -0.0657449 -1.037e-20)
(0.208376 -0.0710221 6.27401e-20)
(0.238264 -0.0757588 -4.59858e-21)
(0.268905 -0.0799513 -2.00853e-20)
(0.300094 -0.0835599 3.63129e-20)
(0.331731 -0.0864512 -7.68725e-20)
(0.363287 -0.0884334 7.1762e-21)
(0.395423 -0.0888944 3.38905e-20)
(0.424355 -0.0876647 -9.34724e-22)
(0.459761 -0.0817156 -2.59929e-20)
(-0.00124012 0.00285139 -3.86647e-20)
(0.00250779 -0.000362247 -5.18156e-20)
(0.0115786 -0.00677287 -8.59479e-21)
(0.0248844 -0.0152211 -3.54353e-20)
(0.0419265 -0.0240572 -5.25795e-20)
(0.0619658 -0.0328939 -1.00563e-19)
(0.0846018 -0.0412766 8.84427e-20)
(0.109381 -0.0491016 -6.50413e-20)
(0.135994 -0.0562797 7.46668e-20)
(0.164145 -0.0628139 5.96519e-20)
(0.193598 -0.068718 2.88664e-21)
(0.224137 -0.0740219 1.00173e-19)
(0.255566 -0.0787477 1.38117e-20)
(0.287709 -0.0828948 1.16777e-19)
(0.320351 -0.0864284 8.6161e-20)
(0.353392 -0.0892124 9.26278e-20)
(0.386267 -0.0910682 -8.04551e-21)
(0.419711 -0.0913203 4.93412e-21)
(0.44963 -0.0899242 -2.78226e-20)
(0.486562 -0.0832151 2.51723e-20)
(-0.00114678 0.00264061 2.59831e-20)
(0.00336707 -0.00108257 -3.28741e-21)
(0.0136348 -0.00792884 -2.56687e-20)
(0.028331 -0.0167926 -6.2954e-20)
(0.0469098 -0.0259724 7.49269e-20)
(0.0685531 -0.0351001 3.86559e-20)
(0.0928384 -0.0437114 -1.18881e-19)
(0.119284 -0.0517106 3.86202e-20)
(0.147568 -0.0590094 -2.57348e-20)
(0.177382 -0.0656159 3.65975e-20)
(0.20848 -0.071547 9.81264e-20)
(0.240636 -0.0768362 -1.02249e-19)
(0.273644 -0.0815094 4.98889e-20)
(0.307322 -0.0855695 -1.02852e-19)
(0.341441 -0.0889872 -3.54594e-20)
(0.375899 -0.0916251 -1.41195e-19)
(0.410096 -0.0933213 -1.2077e-20)
(0.444843 -0.0933337 4.51253e-20)
(0.475732 -0.0917643 6.96123e-21)
(0.514153 -0.0842519 -7.7108e-21)
(-0.00102102 0.00238228 2.57467e-20)
(0.00432671 -0.00189264 1.20029e-19)
(0.0158634 -0.00918316 1.20827e-19)
(0.0320221 -0.0184532 6.02271e-21)
(0.0522093 -0.0279546 3.80868e-20)
(0.075526 -0.0373442 -7.70155e-20)
(0.101527 -0.0461498 1.36885e-19)
(0.129703 -0.0542859 9.07991e-21)
(0.159716 -0.0616663 -8.48343e-20)
(0.191246 -0.0683043 -4.79616e-20)
(0.224035 -0.0742207 -1.91344e-19)
(0.257849 -0.079453 1.40668e-20)
(0.29247 -0.0840311 -1.54124e-20)
(0.327705 -0.0879618 -6.90044e-20)
(0.363316 -0.0912225 -3.05522e-20)
(0.399196 -0.0936749 1.85543e-20)
(0.434709 -0.0951784 4.49369e-20)
(0.47074 -0.0949211 -3.98822e-20)
(0.502575 -0.093173 -3.03068e-20)
(0.542428 -0.084819 -5.7861e-20)
(-0.000859306 0.00207635 -5.9474e-20)
(0.00539383 -0.00279209 7.38524e-21)
(0.0182726 -0.0105345 -6.28217e-20)
(0.0359658 -0.0202004 -4.19764e-20)
(0.0578315 -0.0300001 -1.72622e-19)
(0.082889 -0.039621 5.0434e-21)
(0.11067 -0.0485853 -3.13847e-20)
(0.140634 -0.0568197 8.71018e-21)
(0.172431 -0.0642409 6.03217e-20)
(0.205725 -0.0708687 -4.74715e-21)
(0.240247 -0.0767277 2.68021e-20)
(0.275751 -0.0818599 3.44979e-20)
(0.31201 -0.0862999 -4.00089e-21)
(0.348819 -0.0900586 1.20819e-20)
(0.385927 -0.0931209 -5.47514e-20)
(0.423222 -0.0953486 1.55398e-20)
(0.460036 -0.0966264 -2.50611e-20)
(0.49732 -0.0960703 -4.83834e-20)
(0.530066 -0.0941398 1.58626e-20)
(0.571281 -0.0849115 5.50811e-20)
(-0.000658077 0.00172302 -4.22731e-20)
(0.00657561 -0.00377994 -1.83163e-19)
(0.0208708 -0.0119809 -1.05433e-19)
(0.04017 -0.0220308 1.36587e-19)
(0.0637829 -0.032104 5.69454e-20)
(0.090646 -0.0419242 2.77266e-20)
(0.120267 -0.0510102 -5.16802e-20)
(0.152075 -0.059303 -6.92951e-20)
(0.185705 -0.0667232 -8.77224e-20)
(0.220805 -0.0732979 1.15613e-19)
(0.257095 -0.0790561 5.30229e-20)
(0.294317 -0.0840448 3.84713e-20)
(0.332231 -0.0883033 -1.14221e-19)
(0.370621 -0.0918472 -3.9759e-20)
(0.409222 -0.09467 1.06341e-19)
(0.447917 -0.0966342 2.22664e-20)
(0.486004 -0.0976538 4.1295e-22)
(0.5245 -0.0967709 5.68276e-20)
(0.558113 -0.0946562 5.36129e-20)
(0.600601 -0.0845275 1.05453e-21)
(-0.000413759 0.00132276 1.05185e-20)
(0.00787921 -0.00485459 9.27077e-20)
(0.0236661 -0.0135193 2.48918e-19)
(0.0446425 -0.0239402 -5.03847e-20)
(0.0700698 -0.0342607 1.58289e-19)
(0.0988009 -0.0442468 -1.96509e-20)
(0.130319 -0.0534161 -6.84205e-21)
(0.164022 -0.0617261 1.37485e-19)
(0.199529 -0.0691025 1.03199e-19)
(0.236473 -0.0755803 -8.2084e-20)
(0.27456 -0.0811938 -1.02309e-19)
(0.313518 -0.0859951 -2.66438e-20)
(0.353096 -0.0900288 2.31439e-20)
(0.393066 -0.0933155 -2.29315e-20)
(0.433147 -0.095858 -8.91076e-20)
(0.473217 -0.0975205 7.30218e-21)
(0.51254 -0.0982504 3.91106e-20)
(0.552193 -0.0970142 -1.61115e-20)
(0.586621 -0.0947156 1.50007e-20)
(0.630278 -0.0836676 5.08585e-20)
(-0.000122794 0.00087636 -1.41063e-20)
(0.00931179 -0.00601383 -1.59009e-19)
(0.0266667 -0.0151462 -2.46542e-20)
(0.0493912 -0.0259234 -5.34348e-20)
(0.0766982 -0.0364636 -2.21766e-19)
(0.107357 -0.0465808 -4.7382e-20)
(0.140826 -0.0557936 1.68464e-20)
(0.176471 -0.0640787 -9.33978e-20)
(0.213895 -0.0713675 1.29255e-19)
(0.252713 -0.077704 5.05153e-20)
(0.292618 -0.0831284 1.0491e-19)
(0.333326 -0.0876984 -2.64819e-20)
(0.374569 -0.0914642 1.52972e-19)
(0.416108 -0.094452 7.45012e-21)
(0.457647 -0.0966745 1.02181e-19)
(0.499055 -0.0979981 3.38653e-20)
(0.539567 -0.0984076 -2.40577e-20)
(0.580312 -0.0967935 5.38361e-21)
(0.615493 -0.094313 -3.8638e-20)
(0.660202 -0.0823349 -5.25229e-20)
(0.000218358 0.000384852 6.84698e-20)
(0.0108804 -0.00725481 1.85106e-19)
(0.0298808 -0.016857 -2.16514e-19)
(0.0544236 -0.0279742 3.8074e-20)
(0.0836739 -0.038705 1.8535e-19)
(0.116317 -0.0489171 1.86522e-19)
(0.151787 -0.0581327 9.61825e-20)
(0.189416 -0.0663494 -1.82393e-20)
(0.228791 -0.073506 -1.63132e-19)
(0.269509 -0.0796565 -6.30263e-20)
(0.311248 -0.0848472 6.47168e-20)
(0.353709 -0.0891422 -9.02959e-20)
(0.396611 -0.0925978 -1.54751e-19)
(0.4397 -0.0952458 -1.26988e-20)
(0.482664 -0.0971096 -4.17563e-20)
(0.525364 -0.0980588 7.14508e-21)
(0.567008 -0.0981186 4.71939e-20)
(0.608766 -0.096104 -7.62244e-20)
(0.644635 -0.0934456 -6.93297e-20)
(0.690261 -0.0805347 -2.45557e-20)
(0.000613192 -0.000150441 1.5981e-19)
(0.012592 -0.00857409 -5.03693e-20)
(0.0333161 -0.0186463 3.98615e-21)
(0.0597469 -0.0300858 7.29845e-20)
(0.0910021 -0.0409765 4.55215e-20)
(0.125684 -0.0512459 -2.71736e-20)
(0.163201 -0.0604223 -5.60731e-20)
(0.202852 -0.0685264 1.7738e-19)
(0.244207 -0.0755056 4.74413e-21)
(0.286843 -0.0814248 -9.893e-20)
(0.330424 -0.0863374 -9.18681e-20)
(0.374634 -0.0903143 6.73037e-20)
(0.41918 -0.0934181 -1.70726e-20)
(0.46379 -0.0956869 1.33117e-19)
(0.508139 -0.0971551 -1.57263e-20)
(0.552075 -0.0976961 -8.24143e-20)
(0.594784 -0.0973784 -4.60828e-20)
(0.637467 -0.0949431 1.93491e-20)
(0.673948 -0.0921124 1.40331e-20)
(0.720345 -0.0782748 -1.2964e-20)
(0.00106515 -0.000727933 -1.42471e-19)
(0.0144535 -0.00996761 2.54195e-20)
(0.0369804 -0.0205082 4.91013e-20)
(0.065368 -0.0322503 -8.79076e-20)
(0.098688 -0.0432686 -9.54532e-20)
(0.13546 -0.0535565 -1.01074e-19)
(0.175066 -0.0626505 -1.39143e-21)
(0.216772 -0.070597 -4.18224e-20)
(0.26013 -0.0773532 -4.68351e-20)
(0.304696 -0.0829958 9.16781e-20)
(0.35012 -0.0875861 1.1865e-19)
(0.396069 -0.0912026 1.15822e-19)
(0.442234 -0.0939144 1.83004e-19)
(0.488328 -0.0957663 -1.38845e-19)
(0.53401 -0.0968039 7.11217e-20)
(0.579117 -0.0969053 5.77902e-20)
(0.622815 -0.096184 2.55926e-20)
(0.666324 -0.0933104 1.60202e-19)
(0.703338 -0.0903145 -2.28519e-20)
(0.750346 -0.0755649 7.80776e-20)
(0.00157761 -0.00134577 5.66626e-20)
(0.0164715 -0.0114307 7.66049e-21)
(0.0408809 -0.0224358 4.01914e-20)
(0.0712936 -0.0344588 4.49669e-20)
(0.106736 -0.045571 1.5855e-20)
(0.145645 -0.0558372 4.20061e-20)
(0.187379 -0.0648048 -1.21992e-19)
(0.231168 -0.072548 6.15408e-20)
(0.276545 -0.079035 2.7636e-20)
(0.323048 -0.084356 -9.72092e-20)
(0.370308 -0.0885805 -6.42455e-21)
(0.417977 -0.0917951 -6.1119e-20)
(0.465728 -0.0940764 -9.49729e-20)
(0.51326 -0.0954759 5.82946e-20)
(0.560217 -0.0960505 3.84211e-20)
(0.606419 -0.0956836 3.05018e-20)
(0.651021 -0.0945346 9.73066e-21)
(0.695247 -0.0912079 -1.12904e-19)
(0.732711 -0.0880546 1.05205e-19)
(0.780157 -0.0724164 -4.86359e-20)
(0.00215385 -0.00200186 1.26457e-20)
(0.0186523 -0.0129583 -1.24409e-19)
(0.0450248 -0.0244213 -2.72415e-20)
(0.0775297 -0.0367018 -2.50688e-20)
(0.115149 -0.0478726 -1.1693e-19)
(0.156241 -0.0580756 -6.41026e-21)
(0.200136 -0.0668717 1.65895e-19)
(0.246031 -0.0743654 2.02291e-20)
(0.293439 -0.0805372 -1.37631e-20)
(0.341878 -0.0854916 1.2236e-19)
(0.39096 -0.0893076 -7.71565e-20)
(0.440321 -0.0920805 -1.02396e-19)
(0.489617 -0.0938947 8.90488e-21)
(0.538531 -0.0948088 -2.33054e-20)
(0.586694 -0.0948908 -1.65203e-19)
(0.633908 -0.0940301 -4.6873e-20)
(0.679324 -0.0924315 2.48106e-20)
(0.724148 -0.0886399 8.77932e-21)
(0.761976 -0.0853372 -7.01323e-20)
(0.809675 -0.0688421 3.92072e-20)
(0.00279706 -0.00269385 5.82284e-20)
(0.0210022 -0.0145444 2.12016e-19)
(0.0494187 -0.0264566 8.19023e-20)
(0.084082 -0.0389689 2.37558e-20)
(0.123932 -0.0501613 -3.28901e-20)
(0.167247 -0.0602586 1.0543e-19)
(0.213332 -0.0688373 -1.22166e-19)
(0.261351 -0.0760348 -6.99945e-20)
(0.310796 -0.0818452 8.47349e-21)
(0.361162 -0.0863888 -4.21286e-21)
(0.412045 -0.0897547 1.57542e-20)
(0.463062 -0.0920478 -1.89824e-20)
(0.513853 -0.0933606 -4.81061e-20)
(0.564086 -0.0937593 9.02173e-20)
(0.613377 -0.0933225 1.6997e-19)
(0.661512 -0.0919464 6.43832e-20)
(0.707643 -0.0898787 -1.25988e-19)
(0.752938 -0.0856139 2.0419e-21)
(0.791046 -0.082168 1.31211e-19)
(0.838799 -0.064856 2.58403e-20)
(0.00351034 -0.00341914 -2.05086e-19)
(0.0235271 -0.0161827 -1.3318e-19)
(0.0540687 -0.0285324 -8.23596e-21)
(0.0909553 -0.0412489 -3.1674e-20)
(0.133086 -0.0524244 1.08508e-20)
(0.178662 -0.0623721 -1.4253e-19)
(0.226962 -0.070687 -1.88148e-19)
(0.277117 -0.0775413 -1.3256e-19)
(0.328597 -0.0829446 1.42635e-19)
(0.380875 -0.0870338 -1.37058e-19)
(0.43353 -0.0899094 4.9262e-20)
(0.486159 -0.0916865 1.18265e-19)
(0.538388 -0.0924663 4.69903e-20)
(0.589867 -0.092323 -2.70143e-20)
(0.640201 -0.0913452 -1.32781e-19)
(0.689157 -0.0894363 9.75758e-20)
(0.7359 -0.0868826 2.22925e-19)
(0.781533 -0.0821398 -8.28757e-20)
(0.819841 -0.0785536 -1.38896e-19)
(0.86743 -0.0604728 -3.70236e-20)
(0.00429662 -0.00417492 2.23973e-19)
(0.0262325 -0.0178665 3.7556e-20)
(0.0589806 -0.0306391 -4.33714e-20)
(0.0981541 -0.0435298 5.58224e-20)
(0.142612 -0.0546483 1.17859e-19)
(0.190483 -0.0644015 -6.36333e-21)
(0.241019 -0.0724054 4.0418e-19)
(0.293316 -0.0788696 1.05541e-19)
(0.346823 -0.0838203 -1.76656e-19)
(0.400993 -0.0874127 9.6224e-20)
(0.455382 -0.0897595 -1.67285e-20)
(0.509572 -0.0909869 -3.82437e-20)
(0.563171 -0.0912053 6.90902e-20)
(0.615815 -0.0904972 -3.99628e-20)
(0.6671 -0.0889603 1.83266e-20)
(0.716772 -0.0865061 2.02504e-20)
(0.764019 -0.0834526 -1.42665e-19)
(0.80985 -0.0782312 1.11003e-19)
(0.848285 -0.0745007 5.03735e-20)
(0.895476 -0.0557076 6.16151e-21)
(0.00515872 -0.00495815 -1.53811e-19)
(0.0291235 -0.0195882 -6.48589e-22)
(0.0641596 -0.0327663 3.81404e-21)
(0.105682 -0.045799 -4.62464e-20)
(0.152513 -0.0568187 -7.88249e-20)
(0.202709 -0.0663316 1.14346e-19)
(0.255495 -0.0739769 -2.90789e-19)
(0.309935 -0.080004 -6.14572e-20)
(0.365455 -0.0844575 1.95951e-19)
(0.421486 -0.087512 1.80746e-19)
(0.477565 -0.0892933 -1.98495e-19)
(0.533255 -0.0899399 4.83351e-20)
(0.588151 -0.0895717 -5.29987e-20)
(0.641871 -0.0882803 6.11121e-20)
(0.694007 -0.0861713 1.00969e-21)
(0.744284 -0.0831649 5.63712e-21)
(0.791924 -0.079601 -4.78629e-20)
(0.837813 -0.0739055 -2.22304e-20)
(0.876311 -0.0700151 4.43847e-21)
(0.922841 -0.0505753 -3.17113e-20)
(0.00609931 -0.00576558 1.44499e-19)
(0.032205 -0.0213402 -4.82919e-21)
(0.0696102 -0.0349028 7.0052e-20)
(0.113542 -0.0480431 2.23154e-20)
(0.162787 -0.0589209 -7.92919e-20)
(0.215333 -0.0681466 3.25974e-20)
(0.270381 -0.0753853 -7.53418e-20)
(0.326958 -0.0809288 2.3296e-20)
(0.384471 -0.0848412 -1.74519e-19)
(0.442326 -0.0873181 -2.31647e-19)
(0.500043 -0.0884997 8.06462e-20)
(0.557166 -0.0885373 -7.41748e-21)
(0.613274 -0.0875614 1.55715e-20)
(0.667975 -0.0856726 -3.33127e-20)
(0.720856 -0.0829836 7.63361e-20)
(0.771621 -0.0794242 -1.94278e-19)
(0.819542 -0.0753439 1.39131e-19)
(0.865349 -0.0691849 -1.17919e-20)
(0.903864 -0.0651014 8.23206e-20)
(0.949437 -0.0450943 2.64907e-20)
(0.00712086 -0.00659375 -2.16271e-19)
(0.0354813 -0.023114 -9.80114e-20)
(0.0753363 -0.0370372 -1.45103e-19)
(0.121736 -0.0502482 9.14583e-20)
(0.173434 -0.0609392 -2.26915e-20)
(0.228352 -0.0698301 2.06601e-20)
(0.285665 -0.0766143 1.5734e-19)
(0.344369 -0.0816279 3.48972e-20)
(0.403847 -0.0849566 1.19563e-20)
(0.463483 -0.0868181 3.39947e-20)
(0.522777 -0.0873682 9.91037e-20)
(0.581257 -0.0867719 2.91059e-20)
(0.638488 -0.085171 2.54819e-20)
(0.694067 -0.0826758 -2.45901e-20)
(0.74758 -0.0794049 -1.01488e-19)
(0.798714 -0.0752985 1.32297e-19)
(0.846803 -0.0707008 7.41324e-20)
(0.892389 -0.0640973 5.82289e-20)
(0.9309 -0.0597632 -9.88272e-20)
(0.97518 -0.0392912 -3.46836e-20)
(0.00822569 -0.00743901 1.41649e-19)
(0.0389562 -0.024901 1.71496e-19)
(0.0813412 -0.0391572 5.40708e-21)
(0.130265 -0.0523997 1.31423e-20)
(0.184451 -0.0628578 2.1945e-19)
(0.241758 -0.0713655 -1.62331e-19)
(0.301336 -0.077647 1.79855e-19)
(0.36215 -0.0820854 1.14347e-19)
(0.423559 -0.084789 1.86333e-19)
(0.484925 -0.0859995 -4.79892e-20)
(0.545729 -0.085889 -3.86191e-20)
(0.605481 -0.0846376 -3.46719e-21)
(0.663738 -0.0823987 3.09748e-20)
(0.720084 -0.0792932 -9.21256e-20)
(0.774112 -0.0754446 1.08802e-19)
(0.825494 -0.0708051 -7.17687e-20)
(0.873636 -0.065696 2.52935e-20)
(0.918875 -0.0586782 -4.60103e-20)
(0.957387 -0.0540005 -9.68388e-20)
(0.999982 -0.0331807 3.43791e-20)
(0.00941604 -0.00829771 -7.1277e-20)
(0.0426333 -0.0266921 -9.78243e-20)
(0.0876275 -0.0412505 1.94463e-19)
(0.139129 -0.0544828 -1.0245e-19)
(0.195835 -0.0646604 -1.01706e-19)
(0.255544 -0.0727359 3.12587e-20)
(0.317382 -0.0784668 -1.01297e-19)
(0.380281 -0.0822854 -2.24702e-19)
(0.44358 -0.0843242 -1.4517e-19)
(0.506617 -0.0848503 1.3863e-21)
(0.568856 -0.0840533 -3.25437e-20)
(0.629792 -0.0821293 -1.32384e-19)
(0.688969 -0.079244 -1.37925e-19)
(0.745968 -0.0755297 1.65747e-19)
(0.800386 -0.0711143 -1.15467e-19)
(0.851891 -0.0659635 3.38325e-20)
(0.899974 -0.0603588 2.68128e-20)
(0.944752 -0.0529727 -1.00913e-19)
(0.983297 -0.0477929 4.49687e-20)
(1.0237 -0.0267014 3.83763e-20)
(0.0106941 -0.00916623 -8.39812e-20)
(0.0465157 -0.0284784 -7.20706e-20)
(0.0941972 -0.0433043 -1.38107e-19)
(0.148329 -0.0564824 3.27912e-20)
(0.207582 -0.0663306 2.27503e-20)
(0.2697 -0.0739244 3.02216e-21)
(0.333786 -0.0790571 1.51393e-19)
(0.398741 -0.0822123 4.08728e-20)
(0.463883 -0.0835486 -6.47452e-20)
(0.528526 -0.0833594 8.15743e-20)
(0.592118 -0.0818533 -3.89226e-20)
(0.654139 -0.0792431 9.81356e-21)
(0.714126 -0.0757077 3.66168e-20)
(0.771655 -0.0713916 -8.58341e-20)
(0.826337 -0.066427 6.97498e-20)
(0.87784 -0.0607957 -1.50534e-20)
(0.925752 -0.0547253 1.0896e-19)
(0.969987 -0.0470377 -2.20937e-20)
(1.00864 -0.0410977 1.48083e-19)
(1.04617 -0.0198271 -2.67496e-20)
(0.0120609 -0.0100397 1.86051e-19)
(0.050605 -0.0302492 -4.9263e-20)
(0.101051 -0.0453045 1.57349e-19)
(0.157861 -0.058382 1.3116e-19)
(0.219686 -0.0678505 3.13321e-20)
(0.284216 -0.074913 1.23932e-20)
(0.350533 -0.0794005 -3.4174e-19)
(0.417509 -0.0818502 -8.03794e-20)
(0.484438 -0.0824484 -1.19313e-21)
(0.550615 -0.0815162 -1.64255e-19)
(0.615471 -0.0792819 1.01732e-19)
(0.678473 -0.0759762 5.36252e-20)
(0.739153 -0.0717919 8.43542e-20)
(0.797087 -0.0668865 2.73875e-21)
(0.851901 -0.0613972 -4.86335e-20)
(0.903272 -0.0553252 1.18196e-19)
(0.9509 -0.0488392 -2.68507e-19)
(0.994553 -0.0409447 -6.75909e-20)
(1.03353 -0.0339718 -1.43634e-19)
(1.06778 -0.0133379 8.15579e-22)
(0.0135129 -0.0109092 -1.80473e-19)
(0.0548977 -0.0319894 3.72419e-20)
(0.108183 -0.0472322 -1.5214e-19)
(0.167718 -0.0601608 -1.27617e-19)
(0.232134 -0.069199 -2.1671e-20)
(0.299076 -0.0756807 -2.05152e-20)
(0.367602 -0.0794775 3.43233e-19)
(0.436556 -0.0811818 7.18445e-20)
(0.505212 -0.0810091 1.83484e-19)
(0.572845 -0.0793096 1.7451e-19)
(0.63887 -0.0763323 -1.18696e-19)
(0.702745 -0.0723265 -4.10286e-20)
(0.763996 -0.0674997 -1.03437e-19)
(0.822204 -0.0620231 1.68562e-20)
(0.877014 -0.05604 4.44299e-20)
(0.92812 -0.049576 -8.7362e-20)
(0.975341 -0.0427457 1.09747e-19)
(1.01838 -0.0347799 5.17762e-20)
(1.05796 -0.0268155 1.34143e-19)
(1.09095 -0.00919268 2.73339e-21)
(0.0150505 -0.0117695 8.14096e-20)
(0.0593935 -0.0336879 -1.00899e-19)
(0.115591 -0.049073 1.46006e-19)
(0.177895 -0.0618022 -5.33035e-20)
(0.244919 -0.0703585 -5.31814e-21)
(0.314265 -0.0762103 6.55188e-21)
(0.384972 -0.0792718 -1.71606e-19)
(0.455857 -0.0801928 1.72025e-19)
(0.526173 -0.0792192 -1.23489e-19)
(0.595177 -0.0767315 7.59426e-20)
(0.66227 -0.0730004 3.64529e-20)
(0.726902 -0.0682945 -6.37157e-21)
(0.788598 -0.0628363 -3.54205e-20)
(0.846947 -0.0568115 -1.35888e-20)
(0.901614 -0.050371 -7.71281e-20)
(0.952319 -0.0435691 3.09355e-20)
(0.99899 -0.0364794 -1.07894e-19)
(1.04128 -0.0286249 -1.16256e-19)
(1.08103 -0.0203276 1.38675e-19)
(1.11293 -0.00809822 3.15773e-20)