/*--------------------------------*- C++ -*----------------------------------*\
  =========                 |
  \\      /  F ield         | OpenFOAM: The Open Source CFD Toolbox
   \\    /   O peration     | Website:  https://openfoam.org
    \\  /    A nd           | Version:  7
     \\/     M anipulation  |
\*---------------------------------------------------------------------------*/
FoamFile
{
    version     2.0;
    format      ascii;
    class       volScalarField;
    location    "20";
    object      p;
}
// * * * * * * * * * * * * * * * * * * * * * * * * * * * * * * * * * * * * * //

dimensions      [0 2 -2 0 0 0 0];

internalField   nonuniform List<scalar> 
6050
(
-0.30621
-0.310584
-0.311488
-0.313199
-0.314583
-0.315913
-0.317039
-0.3065
-0.310809
-0.311699
-0.313393
-0.314767
-0.316091
-0.317213
-0.30707
-0.311251
-0.312113
-0.313771
-0.315125
-0.316434
-0.317546
-0.307907
-0.3119
-0.312716
-0.314318
-0.315637
-0.31692
-0.318014
-0.308991
-0.312739
-0.313488
-0.31501
-0.316276
-0.317517
-0.31858
-0.310295
-0.313746
-0.314404
-0.315816
-0.317008
-0.318187
-0.319201
-0.320015
-0.311794
-0.314899
-0.315437
-0.316706
-0.317795
-0.318887
-0.31983
-0.320582
-0.313458
-0.316174
-0.316557
-0.317644
-0.318597
-0.319573
-0.320419
-0.321086
-0.315259
-0.317547
-0.317737
-0.318598
-0.319377
-0.320205
-0.320924
-0.321479
-0.317174
-0.318999
-0.318952
-0.319539
-0.320102
-0.320745
-0.321308
-0.321723
-0.319184
-0.320513
-0.320181
-0.320441
-0.320744
-0.321166
-0.32154
-0.321788
-0.321276
-0.322076
-0.321409
-0.321289
-0.321286
-0.321448
-0.321603
-0.321656
-0.321528
-0.323446
-0.323684
-0.322628
-0.322073
-0.321719
-0.321585
-0.321491
-0.321318
-0.320964
-0.325699
-0.325338
-0.32384
-0.322794
-0.322048
-0.321582
-0.321208
-0.320772
-0.320136
-0.328049
-0.327045
-0.325056
-0.323467
-0.322288
-0.321457
-0.320767
-0.320017
-0.319016
-0.330522
-0.328812
-0.326302
-0.324115
-0.322465
-0.321235
-0.320181
-0.319043
-0.317561
-0.315484
-0.333157
-0.330671
-0.327597
-0.324769
-0.322615
-0.320944
-0.31946
-0.317828
-0.315712
-0.312839
-0.335999
-0.332653
-0.328978
-0.325473
-0.322778
-0.320609
-0.318603
-0.316334
-0.313407
-0.309568
-0.304719
-0.339096
-0.334792
-0.330492
-0.326271
-0.32299
-0.320245
-0.317593
-0.314516
-0.310597
-0.30566
-0.299735
-0.342483
-0.33715
-0.332183
-0.327203
-0.323271
-0.319852
-0.316399
-0.312323
-0.307255
-0.30115
-0.294183
-0.286673
-0.346236
-0.33976
-0.334093
-0.328292
-0.323628
-0.319414
-0.314979
-0.309717
-0.303388
-0.296111
-0.288184
-0.279961
-0.350399
-0.342672
-0.336283
-0.329581
-0.324094
-0.318935
-0.313306
-0.306689
-0.299039
-0.290634
-0.281852
-0.273036
-0.264403
-0.355039
-0.345936
-0.33878
-0.331073
-0.324664
-0.318369
-0.311325
-0.303229
-0.294255
-0.284804
-0.275276
-0.265971
-0.257046
-0.360212
-0.349601
-0.341597
-0.332777
-0.325328
-0.317656
-0.308996
-0.29935
-0.289095
-0.278695
-0.268523
-0.258809
-0.249646
-0.241063
-0.365972
-0.353707
-0.344733
-0.334721
-0.326048
-0.316725
-0.306289
-0.295079
-0.283615
-0.272364
-0.261634
-0.251571
-0.242207
-0.233518
-0.225429
-0.372365
-0.358278
-0.348187
-0.336929
-0.326746
-0.315504
-0.303191
-0.290444
-0.277859
-0.265847
-0.254627
-0.244262
-0.234724
-0.225945
-0.217841
-0.210359
-0.379432
-0.363311
-0.351982
-0.339386
-0.327316
-0.313929
-0.299694
-0.285472
-0.271855
-0.259162
-0.247507
-0.236875
-0.227182
-0.218331
-0.21022
-0.202776
-0.195876
-0.387204
-0.368769
-0.356172
-0.342008
-0.32765
-0.311949
-0.295799
-0.28018
-0.265619
-0.252313
-0.240268
-0.229395
-0.219567
-0.210657
-0.202549
-0.195153
-0.188361
-0.18221
-0.395685
-0.374594
-0.360817
-0.344649
-0.32764
-0.309526
-0.291504
-0.274577
-0.259154
-0.245292
-0.232895
-0.221807
-0.211861
-0.202905
-0.194811
-0.187472
-0.180792
-0.174766
-0.169175
-0.164495
-0.40484
-0.380726
-0.365919
-0.347145
-0.32719
-0.306625
-0.286803
-0.268662
-0.25245
-0.238085
-0.225371
-0.214092
-0.204046
-0.19506
-0.18699
-0.179718
-0.173151
-0.16725
-0.161837
-0.157314
-0.414578
-0.387127
-0.371371
-0.349337
-0.326211
-0.303212
-0.281685
-0.262423
-0.245494
-0.230673
-0.217675
-0.20623
-0.196105
-0.187105
-0.179071
-0.171877
-0.165425
-0.159649
-0.154411
-0.150032
-0.424723
-0.393784
-0.37693
-0.351079
-0.324626
-0.299254
-0.276132
-0.255842
-0.238262
-0.223032
-0.209785
-0.198203
-0.18802
-0.179024
-0.171041
-0.163935
-0.157601
-0.151953
-0.146888
-0.142643
-0.435047
-0.400691
-0.382266
-0.352229
-0.322369
-0.294714
-0.270119
-0.248896
-0.230731
-0.215141
-0.201682
-0.189991
-0.179777
-0.170805
-0.162889
-0.155882
-0.149671
-0.144156
-0.139261
-0.135139
-0.445277
-0.407822
-0.387018
-0.352641
-0.319377
-0.289557
-0.263617
-0.241556
-0.222875
-0.206974
-0.193344
-0.181579
-0.171361
-0.162436
-0.154604
-0.147709
-0.141629
-0.136252
-0.131526
-0.127519
-0.455131
-0.415087
-0.390868
-0.352165
-0.315593
-0.283747
-0.256593
-0.233794
-0.214666
-0.19851
-0.184753
-0.172952
-0.16276
-0.153906
-0.146178
-0.13941
-0.133468
-0.128238
-0.123679
-0.11978
-0.464341
-0.422304
-0.393569
-0.350657
-0.310956
-0.277246
-0.249013
-0.225579
-0.20608
-0.189728
-0.175893
-0.164094
-0.153962
-0.145208
-0.137606
-0.130981
-0.125188
-0.120114
-0.115722
-0.111927
-0.472671
-0.429193
-0.394946
-0.347993
-0.305408
-0.270016
-0.240844
-0.216879
-0.19709
-0.180606
-0.166746
-0.154996
-0.14496
-0.136335
-0.128883
-0.122418
-0.116788
-0.111881
-0.107655
-0.103961
-0.479918
-0.435389
-0.394884
-0.344072
-0.298892
-0.262022
-0.232056
-0.20767
-0.187677
-0.17113
-0.157302
-0.145647
-0.135747
-0.127283
-0.120006
-0.113721
-0.108269
-0.103541
-0.099483
-0.0958914
-0.485904
-0.44048
-0.393297
-0.338822
-0.29136
-0.253231
-0.22262
-0.197928
-0.177821
-0.161286
-0.147552
-0.136041
-0.126319
-0.11805
-0.110976
-0.104893
-0.0996359
-0.0950987
-0.0912096
-0.0877284
-0.490445
-0.444043
-0.3901
-0.332195
-0.282773
-0.243615
-0.212515
-0.187635
-0.16751
-0.151065
-0.137488
-0.126176
-0.116674
-0.108636
-0.101794
-0.0959345
-0.0908921
-0.086559
-0.0828431
-0.0794848
-0.493339
-0.445701
-0.385184
-0.324147
-0.273088
-0.233139
-0.201713
-0.176771
-0.15673
-0.140456
-0.127104
-0.116046
-0.106809
-0.09904
-0.0924604
-0.08685
-0.0820415
-0.0779299
-0.0743993
-0.071168
-0.494603
-0.44526
-0.378481
-0.31464
-0.262267
-0.221769
-0.19019
-0.165319
-0.145467
-0.129452
-0.116396
-0.10565
-0.0967262
-0.0892653
-0.0829813
-0.077645
-0.07309
-0.0692204
-0.0659045
-0.0627765
-0.494025
-0.442455
-0.369889
-0.303641
-0.250286
-0.209488
-0.177935
-0.153272
-0.133717
-0.118049
-0.105362
-0.0949886
-0.0864299
-0.0793181
-0.073364
-0.0683302
-0.0640505
-0.0604425
-0.0573664
-0.0543238
-0.491421
-0.437129
-0.359352
-0.291131
-0.237131
-0.196282
-0.164937
-0.140622
-0.121476
-0.106249
-0.0940071
-0.0840676
-0.0759324
-0.0692093
-0.0636183
-0.0589176
-0.0549447
-0.0516297
-0.0487339
-0.0458617
-0.486616
-0.429173
-0.346825
-0.277096
-0.222795
-0.182143
-0.151189
-0.127368
-0.10875
-0.094061
-0.0823449
-0.0728986
-0.0652475
-0.0589537
-0.0537547
-0.049412
-0.0457804
-0.0427662
-0.0400584
-0.0373914
-0.479424
-0.418517
-0.332285
-0.261533
-0.207272
-0.167063
-0.136688
-0.113512
-0.0955597
-0.0815036
-0.0703964
-0.0615085
-0.0543655
-0.0485516
-0.0437817
-0.0398299
-0.0365645
-0.0338616
-0.0313669
-0.0289234
-0.469657
-0.405122
-0.315724
-0.244441
-0.190554
-0.15105
-0.121455
-0.0990823
-0.081939
-0.0685956
-0.0581531
-0.0498911
-0.0433101
-0.0380161
-0.0337127
-0.0301846
-0.0273086
-0.0249322
-0.0226749
-0.020474
-0.457137
-0.388971
-0.297149
-0.225823
-0.17264
-0.134141
-0.105542
-0.0841328
-0.0678549
-0.0553358
-0.0456378
-0.0380617
-0.0320979
-0.0273637
-0.0235629
-0.0204898
-0.0180264
-0.0159945
-0.0139956
-0.0120608
-0.441704
-0.370067
-0.27658
-0.205698
-0.15357
-0.116408
-0.0889591
-0.0686352
-0.0533475
-0.0417453
-0.0328713
-0.0260405
-0.020746
-0.0166121
-0.0133488
-0.0107606
-0.00873307
-0.0070641
-0.00534314
-0.0037004
-0.423232
-0.348431
-0.254029
-0.184132
-0.133476
-0.0978147
-0.0717156
-0.0526228
-0.0384469
-0.0278514
-0.0198766
-0.0138501
-0.00927382
-0.00578009
-0.00308798
-0.00101346
0.000555443
0.00184322
0.00326675
0.00459063
-0.401635
-0.324116
-0.229481
-0.16126
-0.112376
-0.0783941
-0.0538487
-0.0361339
-0.0231856
-0.0136842
-0.00667991
-0.0015147
0.00229701
0.0051123
0.00720075
0.00873409
0.00982251
0.0107109
0.0118162
0.0127954
-0.376875
-0.297255
-0.202953
-0.137154
-0.0902834
-0.0582118
-0.0354049
-0.0192116
-0.0076001
0.000722859
0.00668953
0.0109394
0.0139429
0.0160436
0.0174975
0.0184637
0.0190509
0.019521
0.0202854
0.0208956
-0.348964
-0.268052
-0.174688
-0.111655
-0.0672623
-0.0373369
-0.0164392
-0.00190279
0.00826874
0.0153335
0.0201995
0.0234837
0.0256383
0.0269908
0.0277816
0.0281565
0.0282234
0.0282562
0.0286545
0.0288723
-0.317968
-0.236551
-0.144777
-0.0849259
-0.043388
-0.0158425
0.00298678
0.0157403
0.0243758
0.0301081
0.0338152
0.0360874
0.0373561
0.0379297
0.0380309
0.0377932
0.0373242
0.0369027
0.0369081
0.0367085
-0.284035
-0.202378
-0.113687
-0.0571403
-0.0187488
0.00619387
0.0228052
0.0336606
0.0406717
0.0450038
0.0474992
0.0487179
0.0490674
0.0488341
0.0482215
0.0473533
0.0463386
0.0454521
0.045039
0.044393
-0.247403
-0.165733
-0.0813717
-0.0284608
0.00655157
0.0286887
0.0429431
0.0517961
0.0571035
0.0599746
0.0612115
0.0613403
0.0607416
0.0596764
0.0583285
0.0568157
0.0552523
0.0538952
0.0530352
0.051911
-0.208176
-0.127062
-0.0478536
0.000968491
0.0323967
0.0515509
0.0633224
0.0700804
0.0736143
0.0749717
0.0749101
0.0739182
0.0723466
0.0704282
0.0683272
0.0661615
0.064051
0.0622096
0.0608446
0.0591937
-0.165961
-0.0874275
-0.0133061
0.0310122
0.058663
0.0746816
0.0838601
0.0884431
0.0901444
0.0899441
0.088551
0.0864137
0.0838493
0.0810608
0.0781955
0.0753773
0.0727223
0.0703535
0.0683474
0.0660388
-0.121532
-0.0467689
0.0220534
0.0615243
0.0852204
0.0979752
0.104469
0.106811
0.106632
0.104839
0.102089
0.0987875
0.0952157
0.091546
0.0879143
0.0844531
0.0812531
0.0782772
0.0754105
0.0722176
-0.0751545
-0.0051984
0.0579917
0.0923422
0.111933
0.121321
0.125057
0.125107
0.123012
0.119601
0.115477
0.110999
0.106411
0.101856
0.0974634
0.0933706
0.0896132
0.0859382
0.0820472
0.078079
-0.027042
0.0370847
0.0942839
0.123302
0.138666
0.144608
0.145532
0.143254
0.139219
0.134175
0.128668
0.123007
0.117399
0.111962
0.106818
0.102094
0.0977454
0.0933213
0.0884909
0.0849394
0.0220061
0.0797809
0.130714
0.154246
0.165288
0.167725
0.1658
0.161173
0.155185
0.148503
0.14161
0.134768
0.128145
0.121834
0.115947
0.110582
0.1056
0.100483
0.0951327
0.091859
0.0716523
0.122625
0.167042
0.184984
0.191646
0.190549
0.185761
0.178778
0.17084
0.162524
0.154253
0.146239
0.13861
0.13144
0.12482
0.118805
0.113191
0.107483
0.101809
0.0985215
0.121494
0.165304
0.203031
0.215332
0.217593
0.212958
0.205314
0.195988
0.186113
0.176179
0.166547
0.157376
0.14876
0.140746
0.133402
0.126739
0.120519
0.114313
0.108366
0.104838
0.171108
0.207506
0.238439
0.245103
0.242979
0.234832
0.224359
0.212719
0.200935
0.18941
0.178441
0.168136
0.158555
0.149718
0.141664
0.134365
0.127578
0.120931
0.114709
0.110837
0.22007
0.248917
0.273029
0.27411
0.267654
0.256048
0.242795
0.228887
0.215236
0.202157
0.189884
0.178476
0.167958
0.158321
0.149576
0.141665
0.134347
0.127295
0.120785
0.11653
0.26796
0.289228
0.306565
0.302169
0.29147
0.276486
0.260525
0.24441
0.228946
0.214361
0.200826
0.188353
0.176931
0.166524
0.157112
0.148616
0.1408
0.133368
0.126569
0.121922
0.314367
0.328137
0.338817
0.329097
0.314282
0.296029
0.277452
0.259209
0.242
0.225966
0.21122
0.197726
0.185439
0.174294
0.164245
0.155195
0.146911
0.139121
0.132043
0.127013
0.358892
0.365348
0.369562
0.354719
0.335951
0.314563
0.293482
0.273206
0.254331
0.236917
0.221018
0.206554
0.193446
0.181601
0.170949
0.161375
0.152653
0.144529
0.13719
0.131799
0.401156
0.400579
0.398584
0.378865
0.356339
0.331979
0.308525
0.286326
0.265877
0.247161
0.230176
0.214798
0.200918
0.188415
0.177197
0.167133
0.158002
0.14957
0.141995
0.136267
0.440812
0.433549
0.425678
0.401374
0.37532
0.348171
0.322497
0.298498
0.276579
0.256647
0.23865
0.222421
0.207822
0.194708
0.182964
0.172445
0.162936
0.154223
0.146435
0.140386
0.477534
0.463992
0.450652
0.422093
0.392771
0.363043
0.335315
0.309656
0.286381
0.265329
0.246399
0.229388
0.214129
0.200454
0.188226
0.17729
0.167436
0.158469
0.150485
0.144111
0.511015
0.491668
0.473326
0.440884
0.408581
0.376504
0.346908
0.319738
0.295231
0.273163
0.253387
0.235667
0.21981
0.205627
0.192962
0.181648
0.171486
0.162291
0.154119
0.147435
0.540969
0.516365
0.493536
0.457617
0.422648
0.38847
0.357205
0.328688
0.303083
0.280109
0.25958
0.241229
0.22484
0.210205
0.197151
0.185504
0.175069
0.165673
0.157327
0.150363
0.56714
0.537893
0.511137
0.472178
0.43488
0.398868
0.366148
0.336456
0.309894
0.286131
0.264947
0.246047
0.229196
0.214168
0.200777
0.18884
0.17817
0.1686
0.160103
0.152895
0.589304
0.556089
0.526003
0.484467
0.445197
0.407634
0.373683
0.342997
0.315627
0.291198
0.269461
0.250098
0.232857
0.217499
0.203823
0.191642
0.180775
0.171059
0.162436
0.155025
0.607271
0.570814
0.538025
0.4944
0.453532
0.414712
0.379764
0.348275
0.320251
0.295283
0.273099
0.253362
0.235807
0.220181
0.206276
0.193898
0.182872
0.17304
0.164316
0.156742
0.620884
0.581955
0.547116
0.501909
0.45983
0.420058
0.384357
0.352259
0.32374
0.298365
0.275844
0.255824
0.238031
0.222204
0.208125
0.195599
0.184453
0.174533
0.165734
0.158037
0.630028
0.589428
0.553212
0.506941
0.46405
0.42364
0.387432
0.354927
0.326076
0.300429
0.27768
0.257472
0.23952
0.223557
0.209363
0.196737
0.185511
0.175533
0.166684
0.158905
0.634622
0.593178
0.55627
0.509465
0.466166
0.425435
0.388974
0.356264
0.327247
0.301463
0.278601
0.258298
0.240266
0.224235
0.209983
0.197307
0.186041
0.176034
0.167161
0.15934
0.634622
0.593178
0.55627
0.509465
0.466166
0.425435
0.388974
0.356264
0.327247
0.301463
0.278601
0.258298
0.240266
0.224235
0.209983
0.197307
0.186041
0.176034
0.167161
0.15934
0.630028
0.589428
0.553212
0.506941
0.46405
0.42364
0.387432
0.354927
0.326076
0.300429
0.27768
0.257472
0.23952
0.223557
0.209363
0.196737
0.185511
0.175533
0.166684
0.158905
0.620884
0.581955
0.547116
0.501909
0.45983
0.420058
0.384357
0.352259
0.32374
0.298365
0.275844
0.255824
0.238031
0.222204
0.208125
0.195599
0.184453
0.174533
0.165734
0.158037
0.607271
0.570814
0.538025
0.4944
0.453532
0.414712
0.379764
0.348275
0.320251
0.295283
0.273099
0.253362
0.235807
0.220181
0.206276
0.193898
0.182872
0.17304
0.164316
0.156742
0.589304
0.556089
0.526003
0.484467
0.445197
0.407634
0.373683
0.342997
0.315627
0.291198
0.269461
0.250098
0.232857
0.217499
0.203823
0.191642
0.180775
0.171059
0.162436
0.155025
0.56714
0.537893
0.511137
0.472178
0.43488
0.398868
0.366148
0.336456
0.309894
0.286131
0.264947
0.246047
0.229196
0.214168
0.200777
0.18884
0.17817
0.1686
0.160103
0.152895
0.540969
0.516365
0.493536
0.457617
0.422648
0.38847
0.357205
0.328688
0.303083
0.280109
0.25958
0.241229
0.22484
0.210205
0.197151
0.185504
0.175069
0.165673
0.157327
0.150363
0.511015
0.491668
0.473326
0.440884
0.408581
0.376504
0.346908
0.319738
0.295231
0.273163
0.253387
0.235667
0.21981
0.205627
0.192962
0.181648
0.171486
0.162291
0.154119
0.147435
0.477534
0.463992
0.450652
0.422093
0.392771
0.363043
0.335315
0.309656
0.286381
0.265329
0.246399
0.229388
0.214129
0.200454
0.188226
0.17729
0.167436
0.158469
0.150485
0.144111
0.440812
0.433549
0.425678
0.401374
0.37532
0.348171
0.322497
0.298498
0.276579
0.256647
0.23865
0.222421
0.207822
0.194708
0.182964
0.172445
0.162936
0.154223
0.146435
0.140386
0.401156
0.400579
0.398584
0.378865
0.356339
0.331979
0.308525
0.286326
0.265877
0.247161
0.230176
0.214798
0.200918
0.188415
0.177197
0.167133
0.158002
0.14957
0.141995
0.136267
0.358892
0.365348
0.369562
0.354719
0.335951
0.314563
0.293482
0.273206
0.254331
0.236917
0.221018
0.206554
0.193446
0.181601
0.170949
0.161375
0.152653
0.144529
0.13719
0.131799
0.314367
0.328137
0.338817
0.329097
0.314282
0.296029
0.277452
0.259209
0.242
0.225966
0.21122
0.197726
0.185439
0.174294
0.164245
0.155195
0.146911
0.139121
0.132043
0.127013
0.26796
0.289228
0.306565
0.302169
0.29147
0.276486
0.260525
0.24441
0.228946
0.214361
0.200826
0.188353
0.176931
0.166524
0.157112
0.148616
0.1408
0.133368
0.126569
0.121922
0.22007
0.248917
0.273029
0.27411
0.267654
0.256048
0.242795
0.228887
0.215236
0.202157
0.189884
0.178476
0.167958
0.158321
0.149576
0.141665
0.134347
0.127295
0.120785
0.11653
0.171108
0.207506
0.238439
0.245103
0.242979
0.234832
0.224359
0.212719
0.200935
0.18941
0.178441
0.168136
0.158555
0.149718
0.141664
0.134365
0.127578
0.120931
0.114709
0.110837
0.121494
0.165304
0.203031
0.215332
0.217593
0.212958
0.205314
0.195988
0.186113
0.176179
0.166547
0.157376
0.14876
0.140746
0.133402
0.126739
0.120519
0.114313
0.108366
0.104838
0.0716523
0.122625
0.167042
0.184984
0.191646
0.190549
0.185761
0.178778
0.17084
0.162524
0.154253
0.146239
0.13861
0.13144
0.12482
0.118805
0.113191
0.107483
0.101809
0.0985215
0.0220061
0.0797808
0.130714
0.154246
0.165288
0.167725
0.1658
0.161173
0.155185
0.148503
0.14161
0.134768
0.128145
0.121834
0.115947
0.110581
0.1056
0.100483
0.0951327
0.091859
-0.027042
0.0370846
0.0942839
0.123302
0.138666
0.144608
0.145532
0.143254
0.139219
0.134175
0.128668
0.123007
0.117399
0.111962
0.106818
0.102094
0.0977454
0.0933212
0.0884909
0.0849394
-0.0751545
-0.00519841
0.0579917
0.0923421
0.111933
0.121321
0.125057
0.125107
0.123012
0.119601
0.115477
0.110999
0.106411
0.101856
0.0974634
0.0933706
0.0896132
0.0859382
0.0820472
0.078079
-0.121532
-0.0467689
0.0220534
0.0615243
0.0852204
0.0979751
0.104469
0.106811
0.106632
0.104839
0.102089
0.0987875
0.0952156
0.091546
0.0879142
0.0844531
0.081253
0.0782771
0.0754104
0.0722176
-0.165961
-0.0874275
-0.0133061
0.0310121
0.058663
0.0746815
0.0838601
0.088443
0.0901444
0.089944
0.0885509
0.0864136
0.0838493
0.0810607
0.0781955
0.0753773
0.0727223
0.0703535
0.0683474
0.0660388
-0.208176
-0.127062
-0.0478536
0.000968464
0.0323967
0.0515508
0.0633224
0.0700803
0.0736143
0.0749717
0.07491
0.0739182
0.0723466
0.0704281
0.0683271
0.0661615
0.064051
0.0622095
0.0608446
0.0591936
-0.247403
-0.165733
-0.0813717
-0.0284609
0.00655154
0.0286887
0.0429431
0.0517961
0.0571034
0.0599745
0.0612114
0.0613402
0.0607415
0.0596764
0.0583285
0.0568157
0.0552523
0.0538951
0.0530352
0.0519109
-0.284035
-0.202378
-0.113687
-0.0571403
-0.0187488
0.00619384
0.0228052
0.0336606
0.0406717
0.0450038
0.0474991
0.0487178
0.0490674
0.048834
0.0482215
0.0473533
0.0463385
0.045452
0.045039
0.0443929
-0.317968
-0.236551
-0.144777
-0.0849259
-0.043388
-0.0158426
0.00298674
0.0157403
0.0243757
0.0301081
0.0338152
0.0360874
0.0373561
0.0379296
0.0380308
0.0377932
0.0373241
0.0369026
0.0369081
0.0367084
-0.348964
-0.268052
-0.174688
-0.111655
-0.0672623
-0.0373369
-0.0164392
-0.00190283
0.00826869
0.0153335
0.0201995
0.0234836
0.0256383
0.0269908
0.0277816
0.0281565
0.0282234
0.0282561
0.0286544
0.0288722
-0.376875
-0.297255
-0.202953
-0.137154
-0.0902835
-0.0582118
-0.035405
-0.0192116
-0.00760015
0.00072281
0.00668948
0.0109394
0.0139428
0.0160435
0.0174975
0.0184636
0.0190508
0.0195209
0.0202854
0.0208955
-0.401635
-0.324116
-0.229481
-0.16126
-0.112376
-0.0783941
-0.0538487
-0.036134
-0.0231857
-0.0136843
-0.00667996
-0.00151475
0.00229696
0.00511224
0.00720069
0.00873403
0.00982245
0.0107108
0.0118162
0.0127953
-0.423232
-0.348431
-0.254029
-0.184132
-0.133476
-0.0978147
-0.0717156
-0.0526228
-0.0384469
-0.0278514
-0.0198767
-0.0138502
-0.00927388
-0.00578015
-0.00308804
-0.00101352
0.000555379
0.00184316
0.00326668
0.00459056
-0.441704
-0.370067
-0.27658
-0.205698
-0.15357
-0.116408
-0.0889591
-0.0686353
-0.0533476
-0.0417454
-0.0328713
-0.0260406
-0.0207461
-0.0166122
-0.0133489
-0.0107607
-0.00873314
-0.00706416
-0.00534321
-0.00370047
-0.457137
-0.388971
-0.297149
-0.225823
-0.17264
-0.134141
-0.105542
-0.0841329
-0.067855
-0.0553358
-0.0456379
-0.0380617
-0.0320979
-0.0273638
-0.023563
-0.0204899
-0.0180265
-0.0159945
-0.0139957
-0.0120609
-0.469657
-0.405122
-0.315724
-0.244441
-0.190554
-0.15105
-0.121455
-0.0990823
-0.081939
-0.0685956
-0.0581532
-0.0498912
-0.0433102
-0.0380161
-0.0337128
-0.0301847
-0.0273087
-0.0249323
-0.022675
-0.0204741
-0.479424
-0.418517
-0.332285
-0.261533
-0.207272
-0.167063
-0.136688
-0.113512
-0.0955598
-0.0815037
-0.0703964
-0.0615086
-0.0543656
-0.0485516
-0.0437817
-0.03983
-0.0365646
-0.0338617
-0.031367
-0.0289235
-0.486616
-0.429173
-0.346825
-0.277096
-0.222795
-0.182143
-0.151189
-0.127368
-0.10875
-0.0940611
-0.082345
-0.0728987
-0.0652475
-0.0589537
-0.0537548
-0.0494121
-0.0457804
-0.0427663
-0.0400585
-0.0373915
-0.491421
-0.437129
-0.359352
-0.291131
-0.237132
-0.196282
-0.164937
-0.140622
-0.121476
-0.106249
-0.0940072
-0.0840677
-0.0759325
-0.0692094
-0.0636184
-0.0589176
-0.0549448
-0.0516298
-0.048734
-0.0458618
-0.494025
-0.442455
-0.369889
-0.303641
-0.250286
-0.209488
-0.177935
-0.153272
-0.133717
-0.118049
-0.105362
-0.0949886
-0.08643
-0.0793182
-0.073364
-0.0683302
-0.0640506
-0.0604426
-0.0573665
-0.0543239
-0.494603
-0.445261
-0.378481
-0.31464
-0.262267
-0.221769
-0.190191
-0.165319
-0.145467
-0.129452
-0.116396
-0.10565
-0.0967263
-0.0892654
-0.0829813
-0.0776451
-0.0730901
-0.0692204
-0.0659046
-0.0627766
-0.493339
-0.445701
-0.385184
-0.324147
-0.273089
-0.233139
-0.201713
-0.176771
-0.15673
-0.140456
-0.127104
-0.116046
-0.106809
-0.09904
-0.0924605
-0.0868501
-0.0820416
-0.0779299
-0.0743994
-0.0711681
-0.490445
-0.444043
-0.3901
-0.332196
-0.282773
-0.243615
-0.212515
-0.187635
-0.16751
-0.151065
-0.137488
-0.126176
-0.116674
-0.108636
-0.101794
-0.0959346
-0.0908921
-0.0865591
-0.0828432
-0.0794849
-0.485904
-0.44048
-0.393297
-0.338822
-0.29136
-0.253231
-0.22262
-0.197928
-0.177821
-0.161286
-0.147552
-0.136041
-0.126319
-0.11805
-0.110976
-0.104893
-0.099636
-0.0950988
-0.0912097
-0.0877285
-0.479918
-0.435389
-0.394884
-0.344072
-0.298892
-0.262022
-0.232056
-0.20767
-0.187677
-0.17113
-0.157302
-0.145647
-0.135747
-0.127283
-0.120006
-0.113721
-0.108269
-0.103541
-0.0994831
-0.0958915
-0.472671
-0.429193
-0.394946
-0.347993
-0.305408
-0.270016
-0.240844
-0.216879
-0.19709
-0.180606
-0.166746
-0.154996
-0.14496
-0.136335
-0.128883
-0.122418
-0.116788
-0.111881
-0.107655
-0.103961
-0.464341
-0.422304
-0.393569
-0.350657
-0.310956
-0.277246
-0.249013
-0.225579
-0.20608
-0.189728
-0.175893
-0.164094
-0.153962
-0.145208
-0.137606
-0.130981
-0.125188
-0.120114
-0.115722
-0.111927
-0.455131
-0.415087
-0.390868
-0.352165
-0.315593
-0.283747
-0.256593
-0.233794
-0.214666
-0.198511
-0.184753
-0.172952
-0.16276
-0.153906
-0.146179
-0.139411
-0.133468
-0.128238
-0.123679
-0.119781
-0.445277
-0.407822
-0.387018
-0.352641
-0.319377
-0.289557
-0.263617
-0.241556
-0.222875
-0.206974
-0.193344
-0.18158
-0.171361
-0.162436
-0.154604
-0.147709
-0.141629
-0.136252
-0.131526
-0.127519
-0.435047
-0.400691
-0.382266
-0.352229
-0.322369
-0.294714
-0.270119
-0.248896
-0.230731
-0.215141
-0.201682
-0.189991
-0.179777
-0.170805
-0.162889
-0.155882
-0.149671
-0.144156
-0.139261
-0.135139
-0.424723
-0.393784
-0.376931
-0.351079
-0.324626
-0.299254
-0.276132
-0.255842
-0.238262
-0.223032
-0.209785
-0.198203
-0.18802
-0.179024
-0.171041
-0.163935
-0.157601
-0.151953
-0.146888
-0.142643
-0.414578
-0.387128
-0.371371
-0.349337
-0.326211
-0.303212
-0.281686
-0.262423
-0.245494
-0.230673
-0.217675
-0.20623
-0.196105
-0.187105
-0.179071
-0.171877
-0.165425
-0.159649
-0.154411
-0.150033
-0.40484
-0.380726
-0.36592
-0.347145
-0.32719
-0.306625
-0.286803
-0.268662
-0.252451
-0.238085
-0.225371
-0.214092
-0.204047
-0.19506
-0.18699
-0.179718
-0.173151
-0.16725
-0.161837
-0.157314
-0.395685
-0.374594
-0.360817
-0.34465
-0.32764
-0.309526
-0.291504
-0.274578
-0.259154
-0.245292
-0.232895
-0.221808
-0.211861
-0.202905
-0.194811
-0.187472
-0.180792
-0.174766
-0.169175
-0.164496
-0.387204
-0.368769
-0.356172
-0.342008
-0.32765
-0.31195
-0.295799
-0.28018
-0.265619
-0.252313
-0.240268
-0.229395
-0.219567
-0.210657
-0.202549
-0.195153
-0.188361
-0.18221
-0.379432
-0.363311
-0.351982
-0.339386
-0.327316
-0.313929
-0.299694
-0.285472
-0.271855
-0.259162
-0.247508
-0.236875
-0.227182
-0.218331
-0.21022
-0.202776
-0.195877
-0.372365
-0.358278
-0.348187
-0.336929
-0.326746
-0.315504
-0.303191
-0.290444
-0.277859
-0.265847
-0.254627
-0.244262
-0.234724
-0.225945
-0.217841
-0.210359
-0.365972
-0.353707
-0.344733
-0.334721
-0.326048
-0.316725
-0.306289
-0.295079
-0.283615
-0.272364
-0.261634
-0.251571
-0.242208
-0.233518
-0.225429
-0.360212
-0.349601
-0.341597
-0.332777
-0.325328
-0.317656
-0.308996
-0.29935
-0.289095
-0.278695
-0.268523
-0.258809
-0.249646
-0.241063
-0.355039
-0.345936
-0.33878
-0.331073
-0.324664
-0.318369
-0.311325
-0.303229
-0.294255
-0.284804
-0.275276
-0.265971
-0.257046
-0.350399
-0.342672
-0.336283
-0.329581
-0.324094
-0.318935
-0.313306
-0.306689
-0.299039
-0.290634
-0.281852
-0.273036
-0.264403
-0.346236
-0.33976
-0.334093
-0.328292
-0.323628
-0.319414
-0.314979
-0.309717
-0.303388
-0.296111
-0.288184
-0.279961
-0.342483
-0.33715
-0.332183
-0.327203
-0.323271
-0.319852
-0.316399
-0.312323
-0.307255
-0.30115
-0.294183
-0.286673
-0.339096
-0.334792
-0.330492
-0.326271
-0.32299
-0.320245
-0.317593
-0.314516
-0.310597
-0.30566
-0.299735
-0.335999
-0.332653
-0.328979
-0.325473
-0.322778
-0.320609
-0.318603
-0.316334
-0.313408
-0.309568
-0.304719
-0.333157
-0.330671
-0.327597
-0.32477
-0.322615
-0.320944
-0.319461
-0.317828
-0.315712
-0.312839
-0.330522
-0.328812
-0.326302
-0.324115
-0.322465
-0.321235
-0.320181
-0.319043
-0.317561
-0.315484
-0.328049
-0.327045
-0.325056
-0.323467
-0.322288
-0.321457
-0.320767
-0.320017
-0.319016
-0.325699
-0.325338
-0.32384
-0.322794
-0.322048
-0.321582
-0.321208
-0.320772
-0.320136
-0.323446
-0.323684
-0.322628
-0.322073
-0.321719
-0.321585
-0.321491
-0.321318
-0.320964
-0.321276
-0.322076
-0.321409
-0.321289
-0.321286
-0.321448
-0.321603
-0.321656
-0.321528
-0.319184
-0.320513
-0.320181
-0.320441
-0.320744
-0.321166
-0.32154
-0.321788
-0.317174
-0.318999
-0.318952
-0.319539
-0.320102
-0.320745
-0.321308
-0.321723
-0.315259
-0.317547
-0.317737
-0.318598
-0.319377
-0.320205
-0.320924
-0.321479
-0.313458
-0.316174
-0.316557
-0.317644
-0.318597
-0.319573
-0.320419
-0.321086
-0.311794
-0.314899
-0.315437
-0.316706
-0.317795
-0.318887
-0.31983
-0.320582
-0.310295
-0.313746
-0.314404
-0.315816
-0.317008
-0.318187
-0.319201
-0.320015
-0.308991
-0.312739
-0.313488
-0.31501
-0.316276
-0.317517
-0.31858
-0.307907
-0.3119
-0.312716
-0.314318
-0.315637
-0.31692
-0.318014
-0.30707
-0.311251
-0.312113
-0.313771
-0.315125
-0.316434
-0.317546
-0.3065
-0.310809
-0.311699
-0.313393
-0.314767
-0.316091
-0.317213
-0.30621
-0.310584
-0.311488
-0.313199
-0.314583
-0.315913
-0.317039
-0.0777815
-0.085898
-0.0939552
-0.101937
-0.109831
-0.117627
-0.125318
-0.1329
-0.140371
-0.147729
-0.154981
-0.0773074
-0.085327
-0.0932878
-0.101173
-0.108971
-0.116669
-0.124262
-0.131742
-0.139106
-0.146351
-0.153483
-0.0768278
-0.0847176
-0.0925459
-0.100296
-0.107954
-0.11551
-0.122954
-0.130279
-0.13748
-0.144552
-0.151499
-0.0763426
-0.0841139
-0.0918234
-0.0994539
-0.106992
-0.114426
-0.121747
-0.128944
-0.136017
-0.142953
-0.149762
-0.0758526
-0.0835101
-0.0911072
-0.0986263
-0.106054
-0.113378
-0.12059
-0.127679
-0.134643
-0.14147
-0.148171
-0.075359
-0.0829007
-0.0903833
-0.0977889
-0.105104
-0.112317
-0.119417
-0.126395
-0.133247
-0.139963
-0.146551
-0.0748624
-0.0822856
-0.0896509
-0.0969397
-0.104139
-0.111234
-0.118218
-0.125078
-0.131812
-0.138406
-0.144871
-0.0743632
-0.0816664
-0.0889125
-0.0960823
-0.103162
-0.110139
-0.117002
-0.123741
-0.130351
-0.13682
-0.143155
-0.0738626
-0.0810445
-0.0881701
-0.0952195
-0.102179
-0.109034
-0.115776
-0.122391
-0.128877
-0.135218
-0.141422
-0.0733617
-0.0804211
-0.087425
-0.0943529
-0.101191
-0.107924
-0.114542
-0.121033
-0.127392
-0.133604
-0.139675
-0.0728614
-0.0797978
-0.086679
-0.0934842
-0.100199
-0.106808
-0.113302
-0.119666
-0.125897
-0.131979
-0.137916
-0.0723631
-0.0791758
-0.0859336
-0.0926154
-0.099206
-0.10569
-0.112058
-0.118295
-0.124396
-0.130347
-0.136148
-0.0718679
-0.0785568
-0.0851908
-0.0917484
-0.0982144
-0.104573
-0.110814
-0.116923
-0.122893
-0.128711
-0.134377
-0.0713771
-0.0779425
-0.0844525
-0.0908858
-0.0972267
-0.103459
-0.109573
-0.115553
-0.121392
-0.127077
-0.132606
-0.0708923
-0.0773346
-0.0837208
-0.0900299
-0.0962457
-0.102352
-0.108339
-0.114189
-0.119898
-0.125449
-0.130843
-0.0704149
-0.0767351
-0.0829982
-0.0891835
-0.0952747
-0.101256
-0.107115
-0.112837
-0.118415
-0.123834
-0.129094
-0.134175
-0.0699465
-0.076146
-0.082287
-0.0883496
-0.0943171
-0.100173
-0.105906
-0.111501
-0.11695
-0.122237
-0.127364
-0.132309
-0.0694891
-0.0755695
-0.0815901
-0.0875312
-0.0933765
-0.0991092
-0.104718
-0.110186
-0.115508
-0.120666
-0.125663
-0.130474
-0.0690447
-0.0750082
-0.0809104
-0.0867321
-0.0924571
-0.0980684
-0.103555
-0.108899
-0.114097
-0.119128
-0.123997
-0.12868
-0.0686155
-0.0744648
-0.0802513
-0.085956
-0.0915632
-0.0970559
-0.102423
-0.107647
-0.112723
-0.117632
-0.122377
-0.126935
-0.068204
-0.0739424
-0.0796163
-0.0852073
-0.0907
-0.0960775
-0.101328
-0.106436
-0.111394
-0.116185
-0.120811
-0.125251
-0.0678131
-0.0734444
-0.0790096
-0.0844908
-0.0898729
-0.0951394
-0.100279
-0.105274
-0.11012
-0.114799
-0.119311
-0.123639
-0.0674461
-0.0729747
-0.0784357
-0.0838117
-0.0890881
-0.0942485
-0.0992813
-0.104171
-0.10891
-0.113483
-0.117889
-0.122112
-0.0671067
-0.0725377
-0.0778999
-0.0831762
-0.0883523
-0.0934126
-0.0983452
-0.103135
-0.107775
-0.11225
-0.116557
-0.120684
-0.0667991
-0.0721384
-0.0774079
-0.0825908
-0.0876733
-0.0926403
-0.0974798
-0.102178
-0.106726
-0.111111
-0.115329
-0.119369
-0.0665282
-0.0717827
-0.0769665
-0.0820633
-0.0870595
-0.0919411
-0.0966959
-0.101311
-0.105777
-0.110081
-0.114221
-0.118184
-0.0662992
-0.0714768
-0.0765832
-0.0816023
-0.086521
-0.091326
-0.0960055
-0.100547
-0.104941
-0.109177
-0.113248
-0.117147
-0.06612
-0.0712294
-0.0762676
-0.0812186
-0.0860699
-0.0908088
-0.0954239
-0.0999033
-0.104237
-0.108416
-0.112433
-0.116281
-0.0659908
-0.0710416
-0.0760211
-0.0809147
-0.0857101
-0.0903956
-0.09496
-0.0993915
-0.103681