/*--------------------------------*- C++ -*----------------------------------*\
  =========                 |
  \\      /  F ield         | OpenFOAM: The Open Source CFD Toolbox
   \\    /   O peration     | Website:  https://openfoam.org
    \\  /    A nd           | Version:  7
     \\/     M anipulation  |
\*---------------------------------------------------------------------------*/
FoamFile
{
    version     2.0;
    format      ascii;
    class       surfaceScalarField;
    location    "20";
    object      phi;
}
// * * * * * * * * * * * * * * * * * * * * * * * * * * * * * * * * * * * * * //

dimensions      [0 3 -1 0 0 0 0];

internalField   nonuniform List<scalar> 
11850
(
-3.78617e-05
3.78621e-05
-3.27193e-10
-0.000110507
7.26458e-05
-6.38624e-10
-0.000202103
9.15969e-05
-7.99714e-10
-0.000304252
0.00010215
-8.92614e-10
-0.000413614
0.000109363
-9.68805e-10
-0.000529025
0.000115412
-1.04185e-09
0.000121287
-1.10549e-09
-3.71825e-05
7.50446e-05
-0.000108593
0.000144056
-0.000198475
0.00018148
-0.000298367
0.000202041
-0.000404773
0.000215769
-0.000516326
0.000226965
0.000237572
-3.58645e-05
0.000110909
-0.00010485
0.000213042
-0.000191353
0.000267983
-0.000286785
0.000297473
-0.000387349
0.000316333
-0.000491289
0.000330905
0.000344005
-3.39665e-05
0.000144876
-9.94168e-05
0.000278492
-0.000180963
0.000349529
-0.000269837
0.000386347
-0.000361812
0.000408308
-0.000454573
0.000423666
0.000436005
-3.15732e-05
0.000176449
-9.24914e-05
0.00033941
-0.00016763
0.000424668
-0.000247994
0.000466711
-0.000328816
0.00048913
-0.00040708
0.00050193
0.000509332
-2.87903e-05
0.000205239
-8.43218e-05
0.000394942
-0.000151757
0.000492103
-0.000221834
0.000536788
-0.000289149
0.000556445
-0.00034986
0.000562641
-0.000400614
0.000560087
0.000549482
-2.57393e-05
0.000230978
-7.51922e-05
0.000444394
-0.000133806
0.000550717
-0.000192003
0.000594985
-0.000243661
0.000608103
-0.000283996
0.000602975
-0.000308538
0.000584629
0.000553459
-2.25501e-05
0.000253528
-6.54065e-05
0.000487251
-0.000114261
0.000599571
-0.000159165
0.000639889
-0.000193185
0.000642123
-0.000210462
0.000620252
-0.000205244
0.000579411
0.000519511
-1.93538e-05
0.000272882
-5.52691e-05
0.000523166
-9.36003e-05
0.000637902
-0.000123942
0.000670231
-0.000138432
0.000656613
-0.000129966
0.000611785
-9.12748e-05
0.00054072
0.000442628
-1.62744e-05
0.000289157
-4.50634e-05
0.000551955
-7.22529e-05
0.000665092
-8.68474e-05
0.000684825
-7.98859e-05
0.000649652
-4.27646e-05
0.000574664
3.36205e-05
0.000464335
0.000316914
-1.34199e-05
0.000302576
-3.50278e-05
0.000573563
-5.05527e-05
0.000680616
-4.82037e-05
0.000682476
-1.76679e-05
0.000619116
5.15278e-05
0.000505468
0.000170742
0.000345121
0.000135117
-1.08745e-05
0.000313451
-2.53316e-05
0.00058802
-2.86902e-05
0.000683975
-8.05671e-06
0.000661843
4.86152e-05
0.000562444
0.000154136
0.000399948
0.000322632
0.000176624
0.000569442
-0.000111693
-0.000470768
-8.68996e-06
0.000322141
-1.6049e-05
0.000595379
-6.66664e-06
0.000674593
3.39121e-05
0.000621264
0.000119972
0.000476384
0.000267263
0.000252657
0.000493096
-4.92085e-05
0.000815375
-0.000433972
-0.000905917
-6.88128e-06
0.000329022
-7.12855e-06
0.000595627
1.57894e-05
0.000651675
7.84736e-05
0.00055858
0.000198159
0.000356698
0.000394123
5.66928e-05
0.000686873
-0.000341959
0.00109559
-0.000842688
-0.00144454
-5.43049e-06
0.000334453
1.6164e-06
0.00058858
3.91771e-05
0.000614114
0.000126901
0.000470856
0.000285694
0.000197905
0.000538727
-0.000196341
0.000908758
-0.000711989
0.0014131
-0.00134703
-0.00208921
-4.23662e-06
0.000338689
1.02972e-05
0.000574046
6.43269e-05
0.000560084
0.000180987
0.000354197
0.000385735
-6.84342e-06
0.000705303
-0.000515908
0.001162
-0.00116869
0.00176573
-0.00195076
0.00250767
-0.00283115
-0.00376619
-3.13204e-06
0.000341821
1.96264e-05
0.000551287
9.23802e-05
0.00048733
0.000242977
0.0002036
0.00050176
-0.000265627
0.000897233
-0.00091138
0.0014461
-0.00171755
0.00214335
-0.002648
0.00295943
-0.00364723
-0.00465344
-1.94e-06
0.000343761
3.01148e-05
0.000519233
0.000124717
0.000392728
0.000315413
1.29038e-05
0.000636936
-0.000587149
0.00111551
-0.00138996
0.00175452
-0.00235656
0.00252682
-0.0034203
0.00338098
-0.00450139
0.00425683
-0.00552928
-0.00645579
-3.61511e-07
0.000344123
4.2438e-05
0.000476433
0.000162894
0.000272272
0.000400828
-0.00022503
0.000793204
-0.000979525
0.00135702
-0.00195377
0.0020736
-0.00307314
0.00289052
-0.00423723
0.00374062
-0.00535149
0.00456344
-0.0063521
-0.00721147
1.4439e-06
0.000342679
5.73159e-05
0.000420561
0.00020853
0.000121058
0.0005013
-0.0005178
0.000970111
-0.00144834
0.00161328
-0.00259694
0.00238382
-0.00384368
0.00320819
-0.0050616
0.0040157
-0.006159
0.00475797
-0.00709437
0.0054143
-0.00786781
-0.00850604
4.10402e-06
0.000338575
7.56208e-05
0.000349044
0.000262997
-6.63179e-05
0.000617316
-0.000872119
0.00116273
-0.00199375
0.00186934
-0.00330355
0.00266206
-0.00463641
0.00345767
-0.0058572
0.00419522
-0.00689656
0.00484578
-0.00774493
0.00540765
-0.00842968
-0.00899386
7.49477e-06
0.00033108
9.78189e-05
0.00025872
0.000327676
-0.000296175
0.00074894
-0.00129338
0.00136476
-0.00260957
0.00211121
-0.00405
0.0028935
-0.0054187
0.00363298
-0.00659668
0.0042875
-0.00755108
0.00484842
-0.00830585
0.00532853
-0.00890979
0.00574947
-0.00941479
-0.00986354
1.19967e-05
0.000319083
0.00012474
0.000145977
0.000403156
-0.000574591
0.000892686
-0.00178291
0.00156447
-0.00328135
0.00232236
-0.00480789
0.00306607
-0.00616241
0.00373315
-0.00726375
0.00430298
-0.00812091
0.00478363
-0.00878649
0.00519663
-0.00932279
0.0055656
-0.00978376
-0.0102083
1.77697e-05
0.000301314
0.000156936
6.81017e-06
0.000489113
-0.000906768
0.00104285
-0.00233664
0.00174969
-0.00398819
0.00249144
-0.00554965
0.00317696
-0.00684793
0.00376577
-0.00785256
0.00425669
-0.00861184
0.00466921
-0.00919901
0.00502858
-0.00968215
0.00535711
-0.0101123
0.00567103
-0.0105222
-0.0109308
2.49549e-05
0.000276359
0.000194796
-0.000163031
0.000583939
-0.00129591
0.00119171
-0.00294442
0.00190958
-0.00470606
0.00261279
-0.00625285
0.00322959
-0.00746473
0.0037418
-0.00836477
0.00416319
-0.00903323
0.00451958
-0.0095554
0.00483632
-0.00999889
0.00513263
-0.0104086
0.0054209
-0.0108105
0.00570794
-0.0112179
-0.0116361
3.36883e-05
0.00024267
0.000238435
-0.000367777
0.000684588
-0.00174206
0.00133087
-0.0035907
0.00203664
-0.00541183
0.00268599
-0.0069022
0.003231
-0.00800974
0.00367271
-0.00880648
0.00403486
-0.00939538
0.00434556
-0.0098661
0.00462793
-0.0102813
0.00489749
-0.0106782
0.00516321
-0.0110762
0.00542961
-0.0114843
0.0056991
-0.0119056
-0.0123424
4.41217e-05
0.000198549
0.000287535
-0.00061119
0.000786759
-0.00224129
0.00145271
-0.00425665
0.00212725
-0.00608637
0.00271435
-0.00748931
0.00318964
-0.00848503
0.00356892
-0.00918575
0.0038815
-0.00970795
0.00415485
-0.0101395
0.00440872
-0.0105351
0.00465499
-0.0109244
0.00489986
-0.0113211
0.00514628
-0.0117307
0.00539571
-0.012155
0.00564857
-0.0125952
-0.0130495
5.64378e-05
0.000142111
0.000341198
-0.00089595
0.000885423
-0.00278551
0.00155168
-0.0049229
0.00218124
-0.00671593
0.00270327
-0.00801134
0.00311391
-0.00889567
0.0034392
-0.00951105
0.00371049
-0.00997924
0.00395278
-0.0103818
0.00418209
-0.0107644
0.00440711
-0.0111495
0.00463201
-0.011546
0.00485868
-0.0119573
0.00508805
-0.0123844
0.00532044
-0.0128276
0.00555711
-0.0132862
-0.0137646
7.08346e-05
7.12763e-05
0.000397907
-0.00122302
0.000975544
-0.00336315
0.00162473
-0.00557209
0.00220086
-0.00729207
0.00265886
-0.00846933
0.00301132
-0.00924814
0.0032905
-0.00979022
0.00352717
-0.0102159
0.00374293
-0.0105975
0.0039502
-0.0109717
0.00415512
-0.0113544
0.00436045
-0.0117513
0.00456738
-0.0121643
0.00477654
-0.0125936
0.0049883
-0.0130394
0.00520354
-0.0135014
0.00542141
-0.0139825
0.0056464
-0.0144727
-0.0150109
8.74552e-05
-1.61789e-05
0.000455651
-0.00159122
0.00105281
-0.00396031
0.00167111
-0.00619039
0.00218973
-0.00781069
0.00258716
-0.00886676
0.00288827
-0.00954924
0.00312816
-0.0100301
0.00333536
-0.0104231
0.00352768
-0.0107898
0.00371445
-0.0111585
0.00389988
-0.0115398
0.00408576
-0.0119372
0.00427288
-0.0123514
0.00446171
-0.0127824
0.00465258
-0.0132302
0.0048462
-0.0136951
0.00504209
-0.0141784
0.00524363
-0.0146743
-0.0152113
0.00544399
0.000106271
-0.00012245
0.000512142
-0.00199709
0.00111418
-0.00456234
0.00169178
-0.006768
0.00215207
-0.00827097
0.0024937
-0.00920839
0.00274993
-0.00980548
0.00295619
-0.0102364
0.00313768
-0.0106046
0.00330862
-0.0109608
0.00347579
-0.0113256
0.00364201
-0.011706
0.00380844
-0.0121036
0.00397565
-0.0125186
0.00414399
-0.0129507
0.00431381
-0.0134001
0.00448561
-0.0138669
0.00465919
-0.0143519
0.00483711
-0.0148522
-0.0153878
0.00501367
0.000126984
-0.000249434
0.000565023
-0.00243513
0.00115805
-0.00515537
0.00168877
-0.00729871
0.00209213
-0.00867434
0.00238324
-0.00949949
0.00260041
-0.0100226
0.00277748
-0.0104135
0.00293596
-0.0107631
0.00308684
-0.0111117
0.00323488
-0.0114737
0.003382
-0.0118531
0.00352895
-0.0122506
0.00367614
-0.0126658
0.00382388
-0.0130985
0.00397248
-0.0135487
0.00412232
-0.0140167
0.00427336
-0.014503
0.00442745
-0.0150063
-0.0155404
0.00458001
0.000149
-0.000398434
0.000612059
-0.00289819
0.00118415
-0.00572746
0.00166466
-0.00777923
0.00201396
-0.00902363
0.0022598
-0.00974534
0.00244286
-0.0102057
0.00259417
-0.0105648
0.00273149
-0.0109004
0.00286309
-0.0112433
0.00299227
-0.0116029
0.0031203
-0.0119812
0.00324771
-0.012378
0.00337481
-0.0127929
0.00350185
-0.0132255
0.00362912
-0.0136759
0.00375688
-0.0141445
0.00388519
-0.0146313
0.00401536
-0.0151364
-0.0156688
0.00414376
0.000171516
-0.00056995
0.000651316
-0.00337799
0.00119311
-0.00626925
0.00162227
-0.00820839
0.00192113
-0.0093225
0.00212665
-0.00995085
0.00227968
-0.0103587
0.00240777
-0.0106929
0.00252517
-0.0110178
0.00263796
-0.011356
0.0027484
-0.0117133
0.00285734
-0.0120901
0.00296515
-0.0124858
0.0030721
-0.0128998
0.00317839
-0.0133318
0.00328425
-0.0137818
0.00338985
-0.0142501
0.00349534
-0.0147368
0.00360152
-0.0152426
-0.0157729
0.00370562
0.00019366
-0.00076361
0.000681343
-0.00386567
0.00118617
-0.00677408
0.00156437
-0.00858659
0.00181678
-0.0095749
0.00198639
-0.0101205
0.00211267
-0.010485
0.00221938
-0.0107996
0.00231767
-0.0111161
0.00241192
-0.0114503
0.00250367
-0.0118051
0.00259349
-0.0121799
0.00268169
-0.012574
0.00276845
-0.0129866
0.00285396
-0.0134173
0.00293838
-0.0138662
0.00302182
-0.0143335
0.0031044
-0.0148194
0.00318661
-0.0153248
-0.0158526
0.00326632
0.000214597
-0.000978207
0.000701279
-0.00435235
0.00116489
-0.00723769
0.00149361
-0.00891531
0.00170353
-0.00978482
0.0018411
-0.010258
0.00194319
-0.0105871
0.00202981
-0.0108862
0.00210951
-0.0111958
0.00218537
-0.0115262
0.00225845
-0.0118781
0.00232917
-0.0122507
0.00239774
-0.0126426
0.00246432
-0.0130532
0.00252905
-0.0134821
0.00259204
-0.0139292
0.00265333
-0.0143948
0.00271303
-0.0148791
0.00277133
-0.0153831
-0.0159079
0.0028266
0.000233582
-0.00121179
0.00071086
-0.00482963
0.00113096
-0.00765778
0.00141237
-0.00919673
0.00158361
-0.00995606
0.00169238
-0.0103668
0.00177225
-0.010667
0.00183968
-0.0109536
0.00190111
-0.0112572
0.00195867
-0.0115837
0.00201311
-0.0119326
0.00206473
-0.0123023
0.0021137
-0.0126916
0.00216014
-0.0130996
0.00220414
-0.0135261
0.00224574
-0.0139708
0.00228495
-0.014434
0.00232183
-0.0149159
0.00235632
-0.0154176
-0.0159388
0.00238721
0.000249952
-0.00146174
0.000710325
-0.00529
0.00108606
-0.00803352
0.00132279
-0.00943346
0.00145883
-0.0100921
0.00154149
-0.0104495
0.00160061
-0.0107261
0.00164948
-0.0110025
0.00169283
-0.0113006
0.00173217
-0.0116231
0.00176801
-0.0119684
0.00180058
-0.0123348
0.00183
-0.012721
0.00185635
-0.013126
0.00187969
-0.0135494
0.0019
-0.0139911
0.00191724
-0.0144512
0.0019314
-0.0149301
0.00194228
-0.0154285
-0.0159454
0.00194887
0.000263127
-0.00172487
0.000700278
-0.00572715
0.00103184
-0.00836509
0.00122671
-0.00962832
0.00133067
-0.0101961
0.0013894
-0.0105082
0.00142888
-0.0107656
0.0014596
-0.0110332
0.00148502
-0.011326
0.0015062
-0.0116442
0.00152348
-0.0119857
0.00153706
-0.0123484
0.00154701
-0.0127309
0.00155338
-0.0131323
0.00155617
-0.0135522
0.00155532
-0.0139903
0.00155073
-0.0144466
0.00154235
-0.0149217
0.00152985
-0.015416
-0.0159278
0.00151232
0.000272634
-0.0019975
0.000681576
-0.00613609
0.000969839
-0.00865335
0.0011257
-0.00978418
0.00120034
-0.0102707
0.00123687
-0.0105447
0.0012575
-0.0107862
0.00127038
-0.0110461
0.00127799
-0.0113336
0.00128106
-0.0116473
0.00127987
-0.0119845
0.00127454
-0.0123431
0.00126513
-0.0127215
0.00125164
-0.0131189
0.00123402
-0.0135346
0.00121218
-0.0139684
0.00118596
-0.0144204
0.00115523
-0.014891
0.00111964
-0.0153804
-0.0158865
0.00107829
0.000276578
-0.00227408
0.000652703
-0.00651222
0.000898394
-0.00889904
0.00101802
-0.00990381
0.00106584
-0.0103185
0.0010817
-0.0105606
0.00108422
-0.0107887
0.00107962
-0.0110415
0.00106966
-0.0113237
0.00105487
-0.0116325
0.00103544
-0.0119651
0.00101148
-0.0123191
0.000982984
-0.012693
0.000949933
-0.0130858
0.000912238
-0.0134969
0.000869753
-0.0139259
0.000822311
-0.014373
0.000769688
-0.0148384
0.00071129
-0.015322
-0.015822
0.000646822
0.000277722
-0.0025518
0.000619786
-0.00685428
0.000824869
-0.00910412
0.000910977
-0.00998992
0.000933915
-0.0103415
0.00093003
-0.0105567
0.000914718
-0.0107734
0.000892644
-0.0110194
0.000865069
-0.0112961
0.000832364
-0.0115998
0.000794682
-0.0119274
0.000752059
-0.0122765
0.000704497
-0.0126455
0.000651913
-0.0130332
0.000594182
-0.0134391
0.000531105
-0.0138629
0.00046251
-0.0143044
0.0003883
-0.0147641
0.000307274
-0.015241
-0.0157345
0.000219741
0.000274724
-0.00282653
0.000581342
-0.0071609
0.00074749
-0.00927027
0.000802448
-0.0100449
0.000802196
-0.0103412
0.000779386
-0.0105339
0.000746563
-0.0107406
0.000707165
-0.01098
0.00066209
-0.011251
0.000611593
-0.0115493
0.000555792
-0.0118716
0.000494681
-0.0122154
0.000428212
-0.012579
0.000356301
-0.0129613
0.00027877
-0.0133616
0.000195341
-0.0137794
0.000105737
-0.0142148
9.50253e-06
-0.0146679
-9.19677e-05
-0.0151395
-0.0156234
-0.000203037
0.000267787
-0.00309431
0.000538268
-0.00743138
0.000667254
-0.00939926
0.000693219
-0.0100708
0.000671197
-0.0103192
0.000630112
-0.0104928
0.000580034
-0.0106905
0.000523453
-0.0109234
0.000461009
-0.0111886
0.000392855
-0.0114812
0.000319074
-0.0117978
0.000239682
-0.012136
0.000154436
-0.0124937
6.33416e-05
-0.0128702
-3.37362e-05
-0.0132645
-0.000137023
-0.0136761
-0.000246953
-0.0141049
-0.000363428
-0.0145514
-0.000488152
-0.0150148
-0.0154909
-0.000620638
0.00025723
-0.00335154
0.000491411
-0.00766556
0.000585052
-0.0094929
0.000583948
-0.0100697
0.000541321
-0.0102766
0.000482472
-0.0104339
0.000415354
-0.0106234
0.000341736
-0.0108498
0.000262044
-0.0111089
0.000176376
-0.0113955
8.46971e-05
-0.0117062
-1.3021e-05
-0.0120383
-0.000116361
-0.0123904
-0.000226088
-0.0127605
-0.000342375
-0.0131482
-0.000465499
-0.013553
-0.000595536
-0.0139748
-0.000732909
-0.0144141
-0.000878775
-0.0148689
-0.0153368
-0.00103287
0.000243458
-0.003595
0.00044156
-0.00786367
0.000501655
-0.00955299
0.000475179
-0.0100433
0.000412908
-0.0102143
0.000336711
-0.0103577
0.000252717
-0.0105394
0.000162212
-0.0107593
6.52613e-05
-0.0110119
-3.77135e-05
-0.0112925
-0.0001466
-0.0115973
-0.000261822
-0.0119231
-0.000383679
-0.0122685
-0.000512074
-0.0126321
-0.000647372
-0.0130129
-0.00078985
-0.0134105
-0.000939728
-0.0138249
-0.00109753
-0.0142563
-0.00126396
-0.0147025
-0.0151616
-0.00143921
0.000226919
-0.00382192
0.000389439
-0.00802619
0.00041772
-0.00958128
0.00036736
-0.0099929
0.000286241
-0.0101332
0.000193014
-0.0102645
9.21909e-05
-0.0104386
-1.53391e-05
-0.0106518
-0.000128491
-0.0108988
-0.000248312
-0.0111727
-0.000374751
-0.0114708
-0.000507716
-0.0117901
-0.000647503
-0.0121288
-0.000794234
-0.0124854
-0.000948201
-0.012859
-0.0011097
-0.013249
-0.00127906
-0.0136556
-0.00145678
-0.0140785
-0.0016434
-0.0145159
-0.0149657
-0.00183924
0.000208077
-0.00403
0.000335703
-0.00815381
0.000333787
-0.00957936
0.000260858
-0.00991997
0.000161522
-0.0100338
5.13211e-05
-0.0101543
-6.56793e-05
-0.0103216
-0.000189022
-0.0105284
-0.000319272
-0.0107685
-0.000456068
-0.0110359
-0.000599622
-0.0113273
-0.000750015
-0.0116397
-0.000907462
-0.0119713
-0.0010722
-0.0123206
-0.0012445
-0.0126867
-0.00142469
-0.0130688
-0.00161313
-0.0134671
-0.00181032
-0.0138814
-0.00201669
-0.0143095
-0.0147498
-0.00223259
0.000187378
-0.00421738
0.000280946
-0.00824738
0.000250333
-0.00954875
0.000155977
-0.00982562
3.85292e-05
-0.00991639
-8.73589e-05
-0.0100284
-0.000220412
-0.0101885
-0.000360314
-0.0103885
-0.000507017
-0.0106218
-0.000660493
-0.0108824
-0.000820895
-0.0111669
-0.000988407
-0.0114722
-0.00116324
-0.0117965
-0.00134566
-0.0121382
-0.00153596
-0.0124964
-0.00173447
-0.0128703
-0.00194159
-0.01326
-0.00215781
-0.0136651
-0.00238349
-0.0140838
-0.0145144
-0.0026189
0.000165246
-0.00438262
0.000225686
-0.00830782
0.000167767
-0.00949083
5.28574e-05
-0.00971071
-8.10843e-05
-0.00978245
-0.000223284
-0.00988623
-0.000372486
-0.0100393
-0.000528541
-0.0102325
-0.000691444
-0.0104589
-0.000861307
-0.0107126
-0.00103829
-0.0109899
-0.00122262
-0.0112879
-0.00141453
-0.0116046
-0.00161431
-0.0119384
-0.00182225
-0.0122884
-0.0020387
-0.0126539
-0.00226409
-0.0130346
-0.00249892
-0.0134303
-0.00274345
-0.0138393
-0.01426
-0.00299786
0.000142081
-0.0045247
0.000170373
-0.00833611
8.6405e-05
-0.00940686
-4.79064e-05
-0.0095764
-0.000198124
-0.00963223
-0.000356495
-0.00972786
-0.000521554
-0.00987428
-0.000693467
-0.0100605
-0.000872313
-0.0102801
-0.00105828
-0.0105266
-0.00125156
-0.0107966
-0.0014524
-0.011087
-0.00166106
-0.0113959
-0.00187785
-0.0117216
-0.00210307
-0.0120632
-0.00233708
-0.0124199
-0.00258033
-0.0127914
-0.00283334
-0.0131773
-0.00309626
-0.0135764
-0.0139871
-0.00336918
0.000118269
-0.00464297
0.000115448
-0.00833329
5.37572e-06
-0.00929679
-0.000146065
-0.00942496
-0.000312645
-0.00946565
-0.000486749
-0.00955375
-0.000667402
-0.00969362
-0.000854897
-0.00987305
-0.00104941
-0.0100856
-0.00125118
-0.0103248
-0.00146044
-0.0105873
-0.00167747
-0.01087
-0.00190255
-0.0111708
-0.00213601
-0.0114882
-0.00237814
-0.0118211
-0.00262932
-0.0121687
-0.00289001
-0.0125307
-0.00316076
-0.0129066
-0.00344165
-0.0132955
-0.0136962
-0.00373256
9.41453e-05
-0.00473712
6.1547e-05
-0.00830069
-7.11972e-05
-0.00916404
-0.000241875
-0.00925428
-0.000424385
-0.00928314
-0.000613895
-0.00936424
-0.000809855
-0.00949766
-0.00101264
-0.00967026
-0.00122251
-0.00987568
-0.00143977
-0.0101076
-0.00166469
-0.0103624
-0.00189758
-0.0106371
-0.00213874
-0.0109297
-0.0023885
-0.0112384
-0.00264718
-0.0115624
-0.00291513
-0.0119008
-0.00319286
-0.0122529
-0.00348092
-0.0126185
-0.00377932
-0.0129971
-0.0133878
-0.00408772
6.99442e-05
-0.00480706
1.00963e-05
-0.00824085
-0.000146609
-0.00900734
-0.00033513
-0.00906576
-0.000533202
-0.00908507
-0.00073779
-0.00915965
-0.000948749
-0.00928671
-0.00116652
-0.00945249
-0.00139143
-0.00965077
-0.00162386
-0.00987514
-0.0018641
-0.0101222
-0.00211249
-0.0103887
-0.00236937
-0.0106728
-0.00263508
-0.0109727
-0.00290992
-0.0112876
-0.00319425
-0.0116164
-0.00348861
-0.0119586
-0.00379357
-0.0123135
-0.00410901
-0.0126817
-0.0130624
-0.00443438
4.58515e-05
-0.00485291
-4.46274e-05
-0.00815037
-0.000220318
-0.00883165
-0.00042565
-0.00886042
-0.000638945
-0.00887177
-0.000858297
-0.0089403
-0.00108393
-0.00906108
-0.00131635
-0.00922007
-0.00155597
-0.00941114
-0.00180321
-0.0096279
-0.00205841
-0.00986698
-0.00232196
-0.0101252
-0.00259419
-0.0104005
-0.00287546
-0.0106915
-0.00316608
-0.0109969
-0.00346642
-0.0113161
-0.00377702
-0.011648
-0.00409848
-0.0119921
-0.0044305
-0.0123496
-0.0127207
-0.00477225
2.24575e-05
-0.00487537
-9.68386e-05
-0.00803107
-0.000291988
-0.0086365
-0.000513342
-0.00863907
-0.000741493
-0.00864362
-0.000975282
-0.00870651
-0.00121524
-0.00882112
-0.00146196
-0.00897335
-0.00171594
-0.00915717
-0.00197763
-0.00936621
-0.00224743
-0.00959718
-0.00252575
-0.00984684
-0.00281295
-0.0101133
-0.00310939
-0.010395
-0.00341541
-0.0106909
-0.00373136
-0.0110001
-0.00405781
-0.0113215
-0.00439539
-0.0116545
-0.00474361
-0.0120014
-0.0123632
-0.00510106
1.58587e-06
-0.00487696
-0.000146697
-0.00788279
-0.000361422
-0.00842177
-0.000598151
-0.00840234
-0.000840738
-0.00840103
-0.00108862
-0.00845864
-0.00134253
-0.0085672
-0.00160319
-0.00871269
-0.00187114
-0.00888922
-0.00214691
-0.00909045
-0.00243093
-0.00931316
-0.00272363
-0.00955414
-0.00302541
-0.00981157
-0.00333664
-0.0100838
-0.00365764
-0.0103699
-0.00398881
-0.010669
-0.00433069
-0.0109797
-0.00468392
-0.0113013
-0.005048
-0.0116373
-0.0119905
-0.00542071
-2.57179e-05
-0.00485124
-0.000194966
-0.00771354
-0.000428375
-0.00818836
-0.000679984
-0.00815073
-0.000936588
-0.00814443
-0.00119818
-0.00819704
-0.00146568
-0.00829971
-0.00173988
-0.00843848
-0.00202142
-0.00860768
-0.00231086
-0.00880101
-0.00260869
-0.00901533
-0.00291538
-0.00924745
-0.00323133
-0.00949561
-0.00355694
-0.00975819
-0.00389255
-0.0100343
-0.00423857
-0.0103229
-0.00459549
-0.0106227
-0.00496381
-0.010933
-0.00534336
-0.0112578
-0.0116024
-0.00573148
-5.00212e-05
-0.00480122
-0.00024155
-0.00752201
-0.000492722
-0.00793719
-0.00075875
-0.0078847
-0.00102895
-0.00787423
-0.00130386
-0.00792214
-0.00158453
-0.00801903
-0.00187187
-0.00815114
-0.00216658
-0.00831298
-0.00246928
-0.00849831
-0.00278051
-0.00870409
-0.00310077
-0.00892719
-0.00343048
-0.0091659
-0.00377005
-0.00941861
-0.0041199
-0.00968446
-0.00448049
-0.00996235
-0.00485222
-0.010251
-0.00523542
-0.0105498
-0.00562974
-0.0108635
-0.0112008
-0.00603136
-7.29926e-05
-0.00472822
-0.000286353
-0.00730865
-0.000554424
-0.00766912
-0.000834374
-0.00760475
-0.00111774
-0.00759086
-0.00140553
-0.00763435
-0.00169896
-0.0077256
-0.00199901
-0.00785109
-0.00230646
-0.00800553
-0.002622
-0.00818277
-0.00294619
-0.0083799
-0.00327957
-0.00859381
-0.0036226
-0.00882287
-0.00397572
-0.0090655
-0.0043394
-0.00932078
-0.00471424
-0.00958752
-0.0051006
-0.00986464
-0.00549862
-0.0101517
-0.00590892
-0.0104532
-0.0107948
-0.00631489
-9.81583e-05
-0.00463007
-0.000333064
-0.00707374
-0.000617007
-0.00738518
-0.000910104
-0.00731166
-0.00120599
-0.00729498
-0.00150604
-0.00733429
-0.00181162
-0.00742002
-0.00212379
-0.00753892
-0.0024434
-0.00768592
-0.00277119
-0.00785499
-0.00310777
-0.00804332
-0.0034537
-0.00824788
-0.00380947
-0.0084671
-0.00417555
-0.00869941
-0.00455249
-0.00894384
-0.00494091
-0.0091991
-0.00534111
-0.00946444
-0.00575177
-0.00974108
-0.00617038
-0.0100346
-0.0103423
-0.00662285
-0.000118965
-0.0045111
-0.000373894
-0.00681882
-0.000673022
-0.00708605
-0.000978992
-0.00700569
-0.00128714
-0.00698683
-0.0015992
-0.00702223
-0.00191664
-0.00710258
-0.00224062
-0.00721494
-0.00257207
-0.00735446
-0.00291178
-0.00751528
-0.00326042
-0.00769468
-0.00361856
-0.00788973
-0.00398675
-0.00809891
-0.00436549
-0.00832067
-0.00475535
-0.00855398
-0.00515675
-0.0087977
-0.00556951
-0.00905167
-0.00599316
-0.00931743
-0.00643171
-0.00959603
-0.00987942
-0.00689461
-0.000138835
-0.00437227
-0.000412752
-0.0065449
-0.000726278
-0.00677252
-0.00104457
-0.00668739
-0.0013645
-0.0066669
-0.00168806
-0.00669867
-0.00201688
-0.00677377
-0.00235219
-0.00687963
-0.00269499
-0.00701166
-0.00304614
-0.00716413
-0.00340634
-0.00733448
-0.00377622
-0.00751986
-0.00415633
-0.0077188
-0.00454725
-0.00792976
-0.00494952
-0.0081517
-0.00536353
-0.00838369
-0.00578929
-0.00862592
-0.00622748
-0.00887924
-0.00668148
-0.00914203
-0.00940814
-0.00715275
-0.000157729
-0.00421454
-0.000449584
-0.00625304
-0.00077672
-0.00644539
-0.00110677
-0.00635734
-0.00143796
-0.00633571
-0.00177252
-0.0063641
-0.00211221
-0.00643409
-0.00245834
-0.0065335
-0.002812
-0.00665799
-0.00317408
-0.00680205
-0.00354534
-0.00696322
-0.00392644
-0.00713876
-0.00431797
-0.00732727
-0.00472052
-0.00752721
-0.0051346
-0.00773763
-0.00556052
-0.00795777
-0.00599862
-0.00818782
-0.00645018
-0.00842768
-0.00691733
-0.00867488
-0.00892606
-0.00739941
-0.000175613
-0.00403892
-0.000484356
-0.0059443
-0.000824323
-0.00610542
-0.00116555
-0.00601611
-0.00150747
-0.0059938
-0.0018525
-0.00601907
-0.00220253
-0.00608406
-0.00255896
-0.00617707
-0.00292295
-0.006294
-0.00329544
-0.00642956
-0.00367724
-0.00658143
-0.00406904
-0.00674696
-0.00447147
-0.00692484
-0.00488513
-0.00711355
-0.00531053
-0.00731223
-0.00574806
-0.00752024
-0.00619825
-0.00773763
-0.00666223
-0.0079637
-0.00714114
-0.00819597
-0.00843271
-0.00763449
-0.000192454
-0.00384647
-0.00051704
-0.00561971
-0.00086906
-0.0057534
-0.00122087
-0.0056643
-0.00157295
-0.00564172
-0.0019279
-0.00566412
-0.00228773
-0.00572423
-0.00265392
-0.00581088
-0.00302771
-0.00592022
-0.00341007
-0.00604719
-0.00380186
-0.00618964
-0.00420381
-0.00634501
-0.00461658
-0.00651207
-0.00504077
-0.00668936
-0.0054769
-0.00687609
-0.00592544
-0.00707169
-0.00638704
-0.00727603
-0.00686263
-0.00748811
-0.00735287
-0.00770572
-0.00792796
-0.00785762
-0.00020822
-0.00363825
-0.00054761
-0.00528032
-0.000910909
-0.0053901
-0.00127268
-0.00530253
-0.00163435
-0.00528006
-0.00199865
-0.00529981
-0.00236772
-0.00535516
-0.00274312
-0.00543548
-0.00312613
-0.0055372
-0.00351781
-0.00565552
-0.00391903
-0.00578841
-0.00433057
-0.00593348
-0.00475312
-0.00608952
-0.00518728
-0.00625519
-0.00563361
-0.00642976
-0.00609263
-0.00661268
-0.00656498
-0.00680368
-0.00705141
-0.00700169
-0.00755244
-0.00720469
-0.00741218
-0.00806822
-0.000222883
-0.00341537
-0.000576048
-0.00492716
-0.000949848
-0.0050163
-0.00132096
-0.00493142
-0.00169161
-0.0049094
-0.00206468
-0.00492674
-0.00244241
-0.00497743
-0.00282643
-0.00505146
-0.00321811
-0.00514553
-0.00361852
-0.00525511
-0.0040286
-0.00537833
-0.00444914
-0.00551293
-0.00488086
-0.0056578
-0.0053244
-0.00581165
-0.00578033
-0.00597384
-0.0062492
-0.0061438
-0.00673165
-0.00632123
-0.00722831
-0.00650503
-0.00773964
-0.00669335
-0.00688577
-0.00826605
-0.000236416
-0.00317895
-0.000602336
-0.00456124
-0.000985863
-0.00463277
-0.00136566
-0.00455162
-0.00174469
-0.00453038
-0.00212592
-0.0045455
-0.00251171
-0.00459164
-0.00290377
-0.00465941
-0.00330351
-0.00474579
-0.00371206
-0.00484656
-0.0041304
-0.00496
-0.00455934
-0.00508398
-0.00499965
-0.0052175
-0.00545195
-0.00535935
-0.00591686
-0.00550893
-0.00639495
-0.00566571
-0.00688682
-0.00582937
-0.00739302
-0.00599883
-0.00791399
-0.00617238
-0.00634954
-0.00845022
-0.000248791
-0.00293016
-0.000626461
-0.00418357
-0.00101894
-0.00424029
-0.00140676
-0.0041638
-0.00179352
-0.00414361
-0.0021823
-0.00415672
-0.00257554
-0.0041984
-0.00297502
-0.00425993
-0.00338222
-0.00433859
-0.0037983
-0.00443047
-0.00422428
-0.00453401
-0.00466102
-0.00464725
-0.00510927
-0.00476925
-0.00556971
-0.0048989
-0.00604296
-0.00503568
-0.00652961
-0.00517906
-0.00703024
-0.00532873
-0.00754538
-0.0054837
-0.0080754
-0.00564235
-0.00580411
-0.00862083
-0.000260081
-0.00267008
-0.000648422
-0.00379523
-0.00104907
-0.00383965
-0.00144423
-0.00376864
-0.00183808
-0.00374976
-0.00223376
-0.00376104
-0.00263383
-0.00379833
-0.00304011
-0.00385365
-0.00345414
-0.00392456
-0.00387713
-0.00400749
-0.00431012
-0.00410102
-0.004754
-0.00420337
-0.00520956
-0.00431369
-0.00567748
-0.00443098
-0.00615842
-0.00455474
-0.00665295
-0.00468453
-0.00716166
-0.00482003
-0.00768506
-0.0049603
-0.00822355
-0.00510386
-0.00525012
-0.00877755
-0.000270355
-0.00239973
-0.000668222
-0.00339736
-0.00107623
-0.00343164
-0.00147804
-0.00336683
-0.00187831
-0.0033495
-0.00228024
-0.0033591
-0.0026865
-0.00339207
-0.00309894
-0.00344121
-0.00351917
-0.00350434
-0.00394842
-0.00357824
-0.00438778
-0.00366166
-0.00483815
-0.003753
-0.00530035
-0.00385149
-0.00577509
-0.00395623
-0.00626303
-0.0040668
-0.00676477
-0.00418279
-0.00728089
-0.00430391
-0.00781194
-0.00442925
-0.00835836
-0.00455744
-0.00468853
-0.00891995
-0.00027956
-0.00212017
-0.000685855
-0.00299107
-0.00110042
-0.00301708
-0.00150817
-0.00295908
-0.00191417
-0.00294349
-0.0023217
-0.00295157
-0.00273349
-0.00298029
-0.00315145
-0.00302325
-0.00357722
-0.00307857
-0.00401207
-0.00314338
-0.00445713
-0.0032166
-0.00491332
-0.00329681
-0.00538148
-0.00338333
-0.00586235
-0.00347537
-0.00635659
-0.00357256
-0.00686482
-0.00367455
-0.00738766
-0.00378107
-0.00792565
-0.00389126
-0.00847912
-0.00400397
-0.00411959
-0.00904805
-0.000287663
-0.0018325
-0.000701314
-0.00257741
-0.00112162
-0.00259677
-0.00153459
-0.00254611
-0.00194564
-0.00253244
-0.00235809
-0.00253913
-0.00277474
-0.00256364
-0.00319755
-0.00260044
-0.0036282
-0.00264792
-0.00406799
-0.00270359
-0.00451807
-0.00276652
-0.0049794
-0.00283548
-0.00545282
-0.0029099
-0.00593909
-0.0029891
-0.00643891
-0.00307275
-0.00695291
-0.00316055
-0.00748171
-0.00325226
-0.00802585
-0.00334712
-0.0085856
-0.00344422
-0.0035439
-0.00916129
-0.000294644
-0.00153786
-0.000714591
-0.00215747
-0.00113983
-0.00217153
-0.00155729
-0.00212866
-0.00197269
-0.00211704
-0.00238937
-0.00212244
-0.00281021
-0.0021428
-0.00323719
-0.00217346
-0.00367205
-0.00221306
-0.0041161
-0.00225954
-0.00457051
-0.00231211
-0.00503626
-0.00236973
-0.00551423
-0.00243194
-0.00600518
-0.00249815
-0.00650982
-0.00256811
-0.00702881
-0.00264156
-0.0075628
-0.00271828
-0.00811227
-0.00279765
-0.00867758
-0.00287891
-0.00296235
-0.00925913
-0.000300488
-0.00123737
-0.000725679
-0.00173228
-0.00115504
-0.00174217
-0.00157625
-0.00170745
-0.00199528
-0.00169801
-0.0024155
-0.00170222
-0.00283984
-0.00171846
-0.00327032
-0.00174298
-0.0037087
-0.00177469
-0.00415631
-0.00181193
-0.00461435
-0.00185407
-0.00508381
-0.00190027
-0.00556559
-0.00195016
-0.00606047
-0.00200327
-0.00656917
-0.00205941
-0.00709237
-0.00211835
-0.00763072
-0.00217993
-0.00818471
-0.00224365
-0.00875473
-0.0023089
-0.00237587
-0.00934121
-0.000305185
-0.000932185
-0.000734573
-0.00130289
-0.00116723
-0.00130951
-0.00159145
-0.00128322
-0.0020134
-0.00127606
-0.00243646
-0.00127915
-0.00286361
-0.00129131
-0.0032969
-0.00130969
-0.00373809
-0.0013335
-0.00418856
-0.00136146
-0.00464952
-0.00139311
-0.00512197
-0.00142782
-0.00560681
-0.00146532
-0.00610485
-0.00150524
-0.00661682
-0.00154744