/*--------------------------------*- C++ -*----------------------------------*\
  =========                 |
  \\      /  F ield         | OpenFOAM: The Open Source CFD Toolbox
   \\    /   O peration     | Website:  https://openfoam.org
    \\  /    A nd           | Version:  7
     \\/     M anipulation  |
\*---------------------------------------------------------------------------*/
FoamFile
{
    version     2.0;
    format      ascii;
    class       surfaceScalarField;
    location    "15";
    object      phi;
}
// * * * * * * * * * * * * * * * * * * * * * * * * * * * * * * * * * * * * * //

dimensions      [0 3 -1 0 0 0 0];

internalField   nonuniform List<scalar> 
11850
(
-3.90771e-05
3.90771e-05
8.0685e-11
-0.00011406
7.49825e-05
8.52349e-11
-0.00020919
9.51298e-05
3.43994e-11
-0.000316325
0.000107135
-3.39207e-11
-0.000432562
0.000116237
-1.1336e-10
-0.000557271
0.000124709
-2.08657e-10
0.000133635
-3.26198e-10
-3.83109e-05
7.73879e-05
-0.000111899
0.000148571
-0.000205066
0.000188297
-0.000309561
0.00021163
-0.000422256
0.000228932
-0.000542228
0.000244682
0.000260977
-3.68264e-05
0.000114214
-0.000107684
0.000219428
-0.000196995
0.000277608
-0.000296301
0.000310936
-0.000402048
0.000334679
-0.000512756
0.000355389
0.000376058
-3.46968e-05
0.000148911
-0.000101591
0.000286323
-0.00018528
0.000361297
-0.000277022
0.000402678
-0.000372668
0.000430325
-0.000469971
0.000452692
0.000473505
-3.20259e-05
0.000180937
-9.38711e-05
0.000348168
-0.000170354
0.000437779
-0.000252393
0.000484718
-0.000335126
0.000513058
-0.000415387
0.000532953
0.000548694
-2.89421e-05
0.000209879
-8.4834e-05
0.00040406
-0.000152745
0.00050569
-0.000223221
0.000555195
-0.000290608
0.000580444
-0.000350729
0.000593074
-0.000399806
0.00059777
0.000595125
-2.55904e-05
0.000235469
-7.4829e-05
0.000453298
-0.000133044
0.000563905
-0.000190388
0.000612539
-0.000240367
0.000630423
-0.000277739
0.000630446
-0.000297494
0.000617525
0.000591883
-2.21232e-05
0.000257593
-6.42223e-05
0.000495397
-0.000111861
0.000611543
-0.000154775
0.000655453
-0.000185593
0.000661241
-0.000197952
0.000642806
-0.000185546
0.000605119
0.000547911
-1.8691e-05
0.000276284
-5.33719e-05
0.000530078
-8.9779e-05
0.00064795
-0.000117184
0.000682858
-0.000127277
0.000671334
-0.000112479
0.000628008
-6.50466e-05
0.000557686
0.000459449
-1.54316e-05
0.000291715
-4.26015e-05
0.000557248
-6.73049e-05
0.000672654
-7.82508e-05
0.000693804
-6.60746e-05
0.000659158
-2.17884e-05
0.000583722
6.40554e-05
0.000471842
0.000321746
-1.24612e-05
0.000304176
-3.21733e-05
0.00057696
-4.48159e-05
0.000685296
-3.83594e-05
0.000687347
-2.18161e-06
0.00062298
7.45033e-05
0.000507037
0.000203197
0.000343149
0.000128402
-9.8651e-06
0.000314042
-2.22617e-05
0.000589357
-2.25085e-05
0.000685543
2.45713e-06
0.000662382
6.49089e-05
0.000560528
0.000177804
0.000394142
0.000355327
0.000165625
0.000612749
-0.00012902
-0.0004954
-7.68986e-06
0.000321731
-1.29261e-05
0.000594593
-3.9039e-07
0.000673007
4.45818e-05
0.00061741
0.000136313
0.000468797
0.000290633
0.000239822
0.000524807
-6.85491e-05
0.000856567
-0.00046078
-0.000940866
-5.94066e-06
0.000327672
-4.06942e-06
0.000592722
2.19809e-05
0.000646957
8.89204e-05
0.00055047
0.000214038
0.000343679
0.000416584
3.72759e-05
0.000716921
-0.000368886
0.0011339
-0.000877761
-0.00148789
-4.58746e-06
0.000332259
4.40919e-06
0.000583725
4.50729e-05
0.000606293
0.000136893
0.00045865
0.000300847
0.000179725
0.000560006
-0.000221883
0.000936817
-0.000745697
0.00144798
-0.00138893
-0.00213853
-3.48381e-06
0.000335743
1.29202e-05
0.000567321
6.98663e-05
0.000549347
0.000190452
0.000338063
0.000400113
-2.99349e-05
0.000725324
-0.000547094
0.00118778
-0.00120816
0.00179636
-0.0019975
0.00254096
-0.00288314
-0.00382108
-2.46693e-06
0.00033821
2.2037e-05
0.000542817
9.7582e-05
0.000473802
0.000251974
0.000183671
0.000515421
-0.000293382
0.00091589
-0.000947563
0.00146899
-0.00176126
0.00216825
-0.00269676
0.0029828
-0.00369769
-0.00470254
-1.33404e-06
0.000339544
3.23567e-05
0.000509127
0.00012967
0.000376489
0.000324064
-1.07219e-05
0.00064991
-0.000619229
0.00113242
-0.00143008
0.00177337
-0.0024022
0.00254401
-0.0034674
0.00339209
-0.00454577
0.00425767
-0.00556812
-0.00648838
2.07924e-07
0.000339336
4.45864e-05
0.000464748
0.000167724
0.000253351
0.000409235
-0.000252233
0.000805322
-0.00101532
0.00137136
-0.00199611
0.00208677
-0.00311761
0.00289798
-0.00427861
0.00373802
-0.00538581
0.00454771
-0.0063778
-0.00722952
1.93219e-06
0.000337404
5.94559e-05
0.000407224
0.000213355
9.94527e-05
0.00050945
-0.000548328
0.000980875
-0.00148674
0.0016238
-0.00263904
0.00238959
-0.0038834
0.0032046
-0.00509362
0.00399946
-0.00618067
0.00472766
-0.007106
0.00537015
-0.00787201
-0.00850675
4.63687e-06
0.000332767
7.78313e-05
0.00033403
0.000267862
-9.05776e-05
0.000624972
-0.000905439
0.00117126
-0.00203303
0.00187459
-0.00334237
0.00265915
-0.00466796
0.00344288
-0.00587734
0.00416685
-0.00690464
0.00480396
-0.00774311
0.00535369
-0.00842173
-0.00898411
8.10146e-06
0.000324666
0.000100167
0.000241964
0.000332549
-0.000322959
0.00075564
-0.00132853
0.00136999
-0.00264738
0.00211001
-0.00408238
0.00288154
-0.0054395
0.00360802
-0.00660382
0.00424937
-0.007546
0.00479834
-0.00829208
0.00526828
-0.00889167
0.00568071
-0.00939654
-0.00984883
1.27012e-05
0.000311965
0.000127243
0.000127422
0.000407849
-0.000603565
0.000897716
-0.0018184
0.00156532
-0.00331498
0.00231407
-0.00483114
0.00304559
-0.00617102
0.00369976
-0.00725799
0.00425767
-0.00810391
0.00472815
-0.00876256
0.00513279
-0.00929631
0.00549481
-0.00975857
-0.0101875
1.85857e-05
0.000293379
0.000159558
-1.35505e-05
0.000493282
-0.000937289
0.00104537
-0.00237049
0.00174536
-0.00401497
0.00247615
-0.00556193
0.00314914
-0.00684401
0.00372596
-0.0078348
0.00420653
-0.00858448
0.00461057
-0.00916661
0.00496308
-0.00964881
0.00528584
-0.0100813
0.00559453
-0.0104962
-0.0109116
2.58843e-05
0.000267495
0.000197436
-0.000185102
0.000587104
-0.00132696
0.00119096
-0.00297435
0.00189978
-0.00472378
0.00259116
-0.00625331
0.00319594
-0.00744879
0.00369748
-0.00833635
0.00411009
-0.00899709
0.00445947
-0.00951599
0.0047705
-0.00995984
0.0050619
-0.0103727
0.00534559
-0.0107799
0.00562808
-0.0111941
-0.0116204
3.47212e-05
0.000232773
0.000240922
-0.000391303
0.000686194
-0.00177223
0.00132629
-0.00361445
0.00202155
-0.00541904
0.00265905
-0.00689081
0.00319305
-0.00798278
0.00362552
-0.00876882
0.00398031
-0.00935188
0.00428516
-0.00982084
0.0045627
-0.0102374
0.00482798
-0.010638
0.00508963
-0.0110415
0.00535194
-0.0114564
0.00561721
-0.0118857
-0.012331
4.52363e-05
0.000187537
0.000289633
-0.0006357
0.000786272
-0.00226887
0.0014441
-0.00427227
0.00210745
-0.0060824
0.00268328
-0.00746664
0.00314878
-0.00844829
0.00352019
-0.00914022
0.00382659
-0.00965828
0.004095
-0.0100893
0.00434468
-0.0104871
0.00458714
-0.0108805
0.00482836
-0.0112827
0.00507114
-0.0116992
0.00531686
-0.0121314
0.00556599
-0.0125802
-0.0130437
5.75976e-05
0.000129939
0.00034262
-0.000920723
0.000882423
-0.00280867
0.00153915
-0.004929
0.00215752
-0.00670076
0.00266919
-0.00797831
0.0030713
-0.0088504
0.00338992
-0.00945884
0.00365599
-0.00992435
0.00389404
-0.0103273
0.00411964
-0.0107127
0.00434124
-0.0111021
0.00456285
-0.0115044
0.00478627
-0.0119226
0.00501244
-0.0123576
0.00524169
-0.0128094
0.00547533
-0.0132773
-0.0137652
7.19829e-05
5.79566e-05
0.000398353
-0.00124709
0.000969797
-0.00338012
0.00160868
-0.00556788
0.00217408
-0.00726617
0.0026228
-0.00842703
0.00296792
-0.00919552
0.00324144
-0.00973236
0.00347364
-0.0101566
0.00368567
-0.0105393
0.00388961
-0.0109166
0.00409144
-0.0113039
0.0042938
-0.0117067
0.00449787
-0.0121267
0.00470428
-0.012564
0.00491346
-0.0130186
0.00512633
-0.0134902
0.00534215
-0.0139811
0.00556536
-0.0144815
-0.0150283
8.85085e-05
-3.05519e-05
0.000454846
-0.00161343
0.0010443
-0.00396956
0.00165208
-0.00617566
0.00216073
-0.00777482
0.00254999
-0.0088163
0.0028448
-0.00949033
0.00307986
-0.00996741
0.00328317
-0.0103599
0.00347216
-0.0107283
0.00365591
-0.0111004
0.00383853
-0.0114865
0.00402175
-0.0118899
0.00420636
-0.0123113
0.00439285
-0.0127505
0.00458164
-0.0132074
0.00477346
-0.013682
0.00496795
-0.0141755
0.00516842
-0.014682
-0.0152284
0.00536848
0.00010712
-0.000137672
0.000509867
-0.00201618
0.00110307
-0.00456277
0.00167037
-0.00674297
0.0021216
-0.00822604
0.00245612
-0.00915082
0.00270696
-0.00974117
0.00290904
-0.0101695
0.00308709
-0.0105379
0.00325502
-0.0108963
0.00341943
-0.0112648
0.00358308
-0.0116502
0.00374714
-0.012054
0.00391216
-0.0124763
0.00407854
-0.0129169
0.00424671
-0.0133755
0.0044172
-0.0138525
0.0045899
-0.0143482
0.00476738
-0.0148594
-0.0154053
0.00494426
0.000127501
-0.000265173
0.000561137
-0.00244981
0.00114467
-0.0051463
0.00166559
-0.00726389
0.00206086
-0.00862132
0.00234582
-0.00943577
0.00255834
-0.0099537
0.00273176
-0.0103429
0.00288715
-0.0106933
0.00303527
-0.0110444
0.00318079
-0.0114103
0.00332557
-0.0117949
0.00347039
-0.0121988
0.00361568
-0.0126216
0.00376179
-0.013063
0.00390911
-0.0135229
0.00405804
-0.0140015
0.00420864
-0.0144988
0.00436276
-0.0150136
-0.0155587
0.00451616
0.000149059
-0.000414233
0.000606512
-0.00290726
0.00116887
-0.00570865
0.00164028
-0.0077353
0.00198244
-0.00896347
0.00222297
-0.0096763
0.002402
-0.0101327
0.00255007
-0.010491
0.00268459
-0.0108278
0.00281365
-0.0111734
0.00294051
-0.0115372
0.00306641
-0.0119208
0.00319191
-0.0123243
0.00331735
-0.012747
0.00344305
-0.0131887
0.00356933
-0.0136491
0.00369652
-0.0141286
0.00382473
-0.0146271
0.0039553
-0.0151441
-0.0156883
0.00408488
0.000171012
-0.000585245
0.000644156
-0.00338041
0.00117635
-0.00624084
0.0015972
-0.00815615
0.00188981
-0.00925609
0.00209073
-0.00987722
0.00224024
-0.0102822
0.00236542
-0.0106161
0.00248026
-0.0109427
0.0025907
-0.0112839
0.002699
-0.0116454
0.00280599
-0.0120278
0.0029121
-0.0124304
0.0030176
-0.0128525
0.00312277
-0.0132938
0.00322788
-0.0137543
0.00333316
-0.0142339
0.00343879
-0.0147327
0.00354565
-0.015251
-0.0157938
0.00365117
0.000192517
-0.000777761
0.000672707
-0.0038606
0.00116833
-0.00673646
0.00153905
-0.00852687
0.00178601
-0.00950305
0.00195165
-0.0100429
0.00207482
-0.0104054
0.00217888
-0.0107202
0.00227481
-0.0110386
0.00236688
-0.011376
0.00245665
-0.0117352
0.0025447
-0.0121159
0.00263135
-0.0125171
0.00271685
-0.012938
0.00280141
-0.0133784
0.00288526
-0.0138381
0.00296855
-0.0143172
0.00305145
-0.0148156
0.0031345
-0.015334
-0.015875
0.00321576
0.000212771
-0.000990532
0.000691374
-0.0043392
0.00114635
-0.00719144
0.00146841
-0.00884893
0.00167361
-0.00970825
0.00180771
-0.010177
0.00190703
-0.0105047
0.00199124
-0.0108044
0.00206874
-0.0111161
0.00214259
-0.0114498
0.00221383
-0.0118065
0.00228291
-0.012185
0.00235008
-0.0125842
0.00241553
-0.0130035
0.00247945
-0.0134423
0.00254199
-0.0139007
0.00260324
-0.0143785
0.00266335
-0.0148757
0.00272256
-0.0153932
-0.0159319
0.00277942
0.000231056
-0.00122159
0.000699934
-0.00480808
0.00111206
-0.00760357
0.00138761
-0.00912448
0.00155475
-0.00987539
0.00166048
-0.0102827
0.00173786
-0.0105821
0.00180308
-0.0108696
0.00186247
-0.0111755
0.00191816
-0.0115055
0.0019709
-0.0118592
0.00202101
-0.0122351
0.00206868
-0.0126319
0.00211409
-0.0130489
0.00215736
-0.0134856
0.00219858
-0.0139419
0.0022378
-0.0144177
0.0022751
-0.014913
0.00231051
-0.0154287
-0.0159643
0.00234292
0.000246737
-0.00146832
0.000698642
-0.00525999
0.00106711
-0.00797203
0.00129871
-0.00935607
0.00143121
-0.0100079
0.00151119
-0.0103627
0.00156806
-0.010639
0.00161489
-0.0109165
0.00165635
-0.0112169
0.00169394
-0.0115431
0.00172819
-0.0118934
0.00175935
-0.0122662
0.00178756
-0.0126601
0.00181296
-0.0130743
0.00183561
-0.0135082
0.00185556
-0.0139618
0.00187279
-0.0144349
0.00188734
-0.0149276
0.00189906
-0.0154404
-0.0159723
0.00190705
0.000259263
-0.00172759
0.000688098
-0.00568882
0.0010131
-0.00829704
0.00120351
-0.00954648
0.00130442
-0.0101088
0.00136077
-0.010419
0.0013982
-0.0106764
0.00142704
-0.0109453
0.00145071
-0.0112406
0.00147026
-0.0115626
0.00148606
-0.0119092
0.0014983
-0.0122785
0.00150711
-0.0126689
0.00151256
-0.0130797
0.00151467
-0.0135103
0.00151343
-0.0139606
0.00150879
-0.0144303
0.00150069
-0.0149195
0.00148889
-0.0154286
-0.015956
0.00147256
0.000268187
-0.00199577
0.000669144
-0.00608978
0.00095153
-0.00857942
0.00110355
-0.0096985
0.00117555
-0.0101808
0.00120998
-0.0104535
0.00122874
-0.0106952
0.00123988
-0.0109564
0.00124586
-0.0112466
0.00124742
-0.0115642
0.00124483
-0.0119067
0.00123824
-0.0122719
0.00122773
-0.0126584
0.00121332
-0.0130653
0.00119501
-0.013492
0.00117272
-0.0139383
0.00114633
-0.0144039
0.00111575
-0.0148889
0.00108064
-0.0153935
-0.0159156
0.00104025
0.000271651
-0.00226743
0.000640255
-0.00645838
0.000880738
-0.00881991
0.000997076
-0.00981484
0.00104261
-0.0102263
0.0010566
-0.0104675
0.00105742
-0.010696
0.00105122
-0.0109502
0.00103976
-0.0112351
0.00102355
-0.011548
0.0010028
-0.0118859
0.000977624
-0.0122467
0.00094805
-0.0126288
0.000914065
-0.0130313
0.000875619
-0.0134536
0.000832588
-0.0138953
0.000784838
-0.0143561
0.000732173
-0.0148362
0.000674023
-0.0153353
-0.0158518
0.000610204
0.000272419
-0.00253985
0.000607489
-0.00679345
0.000807999
-0.00902042
0.000891303
-0.00989815
0.000912269
-0.0102473
0.000906723
-0.0104619
0.000889878
-0.0106792
0.000866348
-0.0109267
0.000837386
-0.0112062
0.000803359
-0.0115139
0.000764421
-0.011847
0.000720629
-0.0122029
0.000671989
-0.0125802
0.000618442
-0.0129778
0.00055988
-0.013395
0.000496138
-0.0138315
0.000427082
-0.0142871
0.000352545
-0.0147617
0.000271641
-0.0152544
-0.0157644
0.000184282
0.000269167
-0.00280901
0.000569359
-0.00709364
0.000731533
-0.00918259
0.000784123
-0.00995074
0.00078218
-0.0102453
0.000757905
-0.0104376
0.000723704
-0.010645
0.000682988
-0.010886
0.000636639
-0.0111598
0.000584912
-0.0114622
0.000527916
-0.01179
0.000465659
-0.0121407
0.000398109
-0.0125127
0.000325203
-0.0129049
0.000246718
-0.0133165
0.00016249
-0.0137473
7.22213e-05
-0.0141968
-2.43217e-05
-0.0146651
-0.000126395
-0.0151523
-0.0156534
-0.000237436
0.0002621
-0.00307111
0.000526738
-0.00735828
0.000652313
-0.00930816
0.0006763
-0.00997472
0.000652839
-0.0102219
0.000610475
-0.0103953
0.000559174
-0.0105937
0.000501412
-0.0108282
0.000437805
-0.0110962
0.000368507
-0.0113929
0.000293602
-0.0117151
0.000213047
-0.0120601
0.000126721
-0.0124263
3.45277e-05
-0.0128127
-6.34752e-05
-0.0132185
-0.000167758
-0.013643
-0.000278545
-0.014086
-0.000395868
-0.0145478
-0.000521163
-0.015027
-0.0155204
-0.000654179
0.00025153
-0.00332264
0.000480453
-0.0075872
0.000571208
-0.00939892
0.000568477
-0.00997199
0.000524644
-0.0101781
0.000464697
-0.0103353
0.000396511
-0.0105255
0.000321839
-0.0107536
0.00024111
-0.0110155
0.000154355
-0.0113062
6.1608e-05
-0.0116223
-3.70406e-05
-0.0119615
-0.000141598
-0.0123218
-0.000252471
-0.0127018
-0.000369954
-0.013101
-0.000494188
-0.0135188
-0.00062532
-0.0139549
-0.000763763
-0.0144094
-0.000910555
-0.0148802
-0.0153653
-0.00106559
0.00023785
-0.00356049
0.000431272
-0.00778062
0.000488971
-0.00945662
0.000461187
-0.00994421
0.000397927
-0.0101148
0.000320813
-0.0102582
0.000235912
-0.0104406
0.000144449
-0.0106621
4.65655e-05
-0.0109176
-5.7251e-05
-0.0112023
-0.000167186
-0.0115124
-0.000283561
-0.0118451
-0.000406514
-0.0121988
-0.000536115
-0.0125722
-0.000672697
-0.0129645
-0.000816477
-0.013375
-0.000967676
-0.0138037
-0.00112679
-0.0142503
-0.00129452
-0.0147125
-0.0151887
-0.00147112
0.000221497
-0.00378199
0.0003799
-0.00793903
0.000406241
-0.00948296
0.000354866
-0.00989283
0.000272966
-0.0100329
0.000179003
-0.0101642
7.7406e-05
-0.010339
-3.07025e-05
-0.010554
-0.000144767
-0.0108036
-0.000265533
-0.0110816
-0.000392909
-0.011385
-0.000526959
-0.011711
-0.000667888
-0.0120579
-0.000815884
-0.0124242
-0.000971238
-0.0128091
-0.00113422
-0.013212
-0.00130512
-0.0136328
-0.00148441
-0.014071
-0.00167267
-0.0145243
-0.0149911
-0.00187027
0.000202917
-0.00398491
0.000326978
-0.00806309
0.000323544
-0.00947953
0.000249875
-0.00981917
0.000149957
-0.00993298
3.91456e-05
-0.0100534
-7.83093e-05
-0.0102215
-0.000202348
-0.0104299
-0.000333246
-0.0106727
-0.000470854
-0.010944
-0.0006153
-0.0112406
-0.000766725
-0.0115596
-0.000925339
-0.0118993
-0.0010914
-0.0122582
-0.00126519
-0.0126353
-0.00144703
-0.0130302
-0.00163724
-0.0134426
-0.00183626
-0.0138719
-0.00204458
-0.0143159
-0.0147731
-0.00226263
0.000182542
-0.00416745
0.000273084
-0.00815363
0.000241346
-0.00944779
0.000146512
-0.00972433
2.85716e-05
-0.00981504
-9.75209e-05
-0.00992734
-0.00023101
-0.010088
-0.000371403
-0.0102895
-0.000518646
-0.0105254
-0.000672808
-0.0107898
-0.000834038
-0.0110793
-0.00100254
-0.0113911
-0.00117854
-0.0117233
-0.00136233
-0.0120744
-0.00155422
-0.0124434
-0.00175453
-0.0128299
-0.00196362
-0.0132335
-0.00218194
-0.0136536
-0.00240985
-0.014088
-0.0145351
-0.00264777
0.000160782
-0.00432823
0.00021872
-0.00821157
0.000160059
-0.00938913
4.48966e-05
-0.00960917
-8.91294e-05
-0.00968101
-0.00023156
-0.00978491
-0.000380997
-0.00993859
-0.000537368
-0.0101332
-0.000700686
-0.0103621
-0.000871117
-0.0106194
-0.00104885
-0.0109016
-0.00123412
-0.0112058
-0.00142719
-0.0115302
-0.00162837
-0.0118732
-0.00183798
-0.0122338
-0.00205636
-0.0126115
-0.00228392
-0.0130059
-0.00252107
-0.0134165
-0.0027681
-0.013841
-0.0142779
-0.00302535
0.000138026
-0.00446626
0.000164318
-0.00823786
8.00007e-05
-0.00930481
-5.42646e-05
-0.00947491
-0.000204485
-0.00953079
-0.000362853
-0.00962654
-0.000527957
-0.00977349
-0.000700012
-0.00996112
-0.000879132
-0.010183
-0.00106554
-0.010433
-0.00125947
-0.0107077
-0.00146119
-0.0110041
-0.00167099
-0.0113204
-0.00188919
-0.011655
-0.00211614
-0.0120069
-0.0023522
-0.0123754
-0.00259779
-0.0127603
-0.00285333
-0.0131609
-0.00311899
-0.0135753
-0.0140019
-0.00339501
0.000114657
-0.00458091
0.000110316
-0.00823352
-3.86239e-07
-0.00919411
-0.000151016
-0.00932428
-0.000317284
-0.00936452
-0.000491176
-0.00945265
-0.000671681
-0.00959298
-0.000859139
-0.00977366
-0.00105377
-0.00998835
-0.00125584
-0.0102309
-0.00146564
-0.0104979
-0.00168348
-0.0107863
-0.00190965
-0.0110942
-0.00214451
-0.0114201
-0.00238841
-0.011763
-0.00264172
-0.0121221
-0.0029049
-0.0124971
-0.00317838
-0.0128875
-0.00346218
-0.0132915
-0.0137076
-0.00375642
9.10037e-05
-0.00467192
5.73995e-05
-0.00819991
-7.49837e-05
-0.00906173
-0.000245308
-0.00915395
-0.000427304
-0.00918253
-0.000616384
-0.00926357
-0.000811996
-0.00939737
-0.00101456
-0.0095711
-0.00122438
-0.00977853
-0.0014418
-0.0100135
-0.00166713
-0.0102726
-0.00190072
-0.0105527
-0.00214291
-0.010852
-0.00239404
-0.011169
-0.00265448
-0.0115025
-0.00292462
-0.011852
-0.00320495
-0.0122168
-0.00349591
-0.0125965
-0.00379739
-0.0129901
-0.0133958
-0.00410927
6.728e-05
-0.0047392
7.15061e-06
-0.00813978
-0.000149184
-0.00890539
-0.000337062
-0.00896607
-0.00053441
-0.00898518
-0.000738341
-0.00905964
-0.00094874
-0.00918697
-0.00116609
-0.00935375
-0.00139077
-0.00955385
-0.00162319
-0.00978105
-0.0018637
-0.010032
-0.00211268
-0.0103037
-0.00237049
-0.0105942
-0.00263751
-0.010902
-0.00291409
-0.011226
-0.00320063
-0.0115654
-0.00349766
-0.0119198
-0.00380565
-0.0122885
-0.0041243
-0.0126714
-0.0130668
-0.00445323
4.3659e-05
-0.00478286
-4.7066e-05
-0.00804906
-0.000221707
-0.00873075
-0.000426094
-0.00876169
-0.000638443
-0.00877283
-0.000856909
-0.00884117
-0.00108176
-0.00896212
-0.00131355
-0.00912196
-0.00155274
-0.00931465
-0.0017998
-0.009534
-0.00205512
-0.00977672
-0.0023191
-0.0100397
-0.00259215
-0.0103212
-0.00287465
-0.0106195
-0.00316694
-0.0109337
-0.00346945
-0.0112629
-0.00378276
-0.0116065
-0.00410736
-0.0119639
-0.00444269
-0.0123361
-0.0127215
-0.004788
2.07575e-05
-0.00480362
-9.82829e-05
-0.00793002
-0.000292188
-0.00853684
-0.000512319
-0.00854156
-0.000739288
-0.00854586
-0.000971957
-0.0086085
-0.0012109
-0.00872317
-0.00145678
-0.00887608
-0.00171011
-0.00906132
-0.00197143
-0.00927269
-0.00224116
-0.00950699
-0.00251976
-0.00976112
-0.00280764
-0.0100333
-0.00310519
-0.0103219
-0.00341277
-0.0106261
-0.00373082
-0.0109449
-0.00405996
-0.0112773
-0.00440073
-0.0116231
-0.00475234
-0.0119845
-0.0123605
-0.00511332
1.77601e-07
-0.00480379
-0.000147228
-0.00778261
-0.000360439
-0.00832363
-0.000595682
-0.00830631
-0.000836843
-0.0083047
-0.00108336
-0.00836199
-0.00133603
-0.0084705
-0.00159561
-0.0086165
-0.0018627
-0.00879423
-0.00213787
-0.00899752
-0.00242162
-0.00922324
-0.00271441
-0.00946832
-0.0030167
-0.00973101
-0.00332888
-0.0100097
-0.00365133
-0.0103036
-0.00398447
-0.0106117
-0.00432894
-0.0109329
-0.00468535
-0.0112667
-0.0050529
-0.0116169
-0.0119844
-0.00542908
-2.66522e-05
-0.00477714
-0.000194614
-0.00761465
-0.000426222
-0.00809203
-0.000676089
-0.00805645
-0.000931017
-0.00804977
-0.001191
-0.008102
-0.00145701
-0.00820449
-0.00172989
-0.00834362
-0.00201032
-0.0085138
-0.00229894
-0.0087089
-0.00259628
-0.00892591
-0.00290285
-0.00916175
-0.00321911
-0.00941475
-0.00354549
-0.00968336
-0.00388238
-0.00996675
-0.00423023
-0.0102639
-0.00458957
-0.0105735
-0.00496097
-0.0108953
-0.00534401
-0.0112339
-0.0115928
-0.00573561
-5.0387e-05
-0.00472675
-0.00024033
-0.00742471
-0.000489421
-0.00784293
-0.000753452
-0.00779241
-0.00102172
-0.0077815
-0.00129477
-0.00782896
-0.0015737
-0.00792556
-0.00185946
-0.00805786
-0.00215282
-0.00822044
-0.00245445
-0.00840728
-0.00276494
-0.00861542
-0.00308484
-0.00884185
-0.00341463
-0.00908495
-0.00375477
-0.00934322
-0.0041057
-0.00961582
-0.00446793
-0.00990166
-0.00484189
-0.0101996
-0.00522801
-0.0105092
-0.00562579
-0.0108361
-0.0111877
-0.00603086
-7.28532e-05
-0.0046539
-0.000284283
-0.00721328
-0.00055
-0.00757722
-0.000827698
-0.00751472
-0.00110888
-0.00750032
-0.00139455
-0.00754329
-0.00168598
-0.00763414
-0.00198419
-0.00775964
-0.00229002
-0.0079146
-0.00260422
-0.00809308
-0.00292741
-0.00829223
-0.00326017
-0.00850908
-0.00360303
-0.0087421
-0.00395646
-0.00898979
-0.004321
-0.00925128
-0.00469725
-0.00952541
-0.00508559
-0.00981123
-0.00548619
-0.0101086
-0.00590016
-0.0104221
-0.010779
-0.00630888
-9.74948e-05
-0.00455641
-0.000330122
-0.00698065
-0.000611447
-0.00729589
-0.000902039
-0.00722413
-0.00119548
-0.00720688
-0.00149316
-0.00724561
-0.00179647
-0.00733082
-0.00210653
-0.00744958
-0.00242425
-0.00759689
-0.00275042
-0.00776692
-0.00308571
-0.00795694
-0.00343074
-0.00816405
-0.00378605
-0.00838678
-0.00415218
-0.00862366
-0.00452972
-0.00887374
-0.0049193
-0.00913583
-0.00532117
-0.00940936
-0.00573387
-0.00969591
-0.0061551
-0.0100009
-0.0103197
-0.00661436
-0.000117853
-0.00443855
-0.000370153
-0.00672835
-0.000666401
-0.00699964
-0.000969612
-0.00692091
-0.00127506
-0.00690144
-0.00158447
-0.0069362
-0.00189937
-0.00701592
-0.00222097
-0.00712798
-0.00255024
-0.00726761
-0.00288803
-0.00742912
-0.00323508
-0.0076099
-0.00359201
-0.00780712
-0.00395942
-0.00801937
-0.0043379
-0.00824519
-0.00472805
-0.0084836
-0.00513031
-0.00873357
-0.00554447
-0.0089952
-0.00597015
-0.00927023
-0.0064118
-0.00955923
-0.00985228
-0.00687926
-0.000137294
-0.00430126
-0.000408242
-0.0064574
-0.000718629
-0.00668926
-0.00103391
-0.00660563
-0.00135087
-0.00658447
-0.00167153
-0.00661554
-0.00199753
-0.00668992
-0.00233017
-0.00679535
-0.0026705
-0.00692728
-0.00301942
-0.0070802
-0.00337771
-0.00725161
-0.00374603
-0.00743879
-0.00412503
-0.00764037
-0.00451533
-0.00785489
-0.00491754
-0.00808139
-0.00533204
-0.00831907
-0.00575888
-0.00856836
-0.00619895
-0.00883016
-0.00665595
-0.00910223
-0.00937758
-0.00713064
-0.000155777
-0.00414548
-0.000444335
-0.00616885
-0.00076808
-0.00636551
-0.00109487
-0.00627884
-0.00142284
-0.00625651
-0.00175422
-0.00628415
-0.00209082
-0.00635332
-0.00243399
-0.00645217
-0.00278487
-0.0065764
-0.0031444
-0.00672067
-0.00351341
-0.00688261
-0.0038926
-0.00705959
-0.00428266
-0.00725032
-0.00468421
-0.00745333
-0.00509783
-0.00766777
-0.00552386
-0.00789304
-0.00596271
-0.00812951
-0.00641582
-0.00837704
-0.00688542
-0.00863263
-0.00889274
-0.00737026
-0.00017327
-0.00397221
-0.000478401
-0.00586371
-0.00081473
-0.00602918
-0.00115245
-0.00594112
-0.00149089
-0.00591808
-0.00183248
-0.00594256
-0.00217914
-0.00600666
-0.00253232
-0.00609899
-0.00289322
-0.0062155
-0.00326283
-0.00635105
-0.00364203
-0.00650342
-0.00403155
-0.00667007
-0.00443211
-0.00684976
-0.00484437
-0.00704108
-0.00526888
-0.00724326
-0.00570608
-0.00745583
-0.00615661
-0.00767898
-0.00662173
-0.00791192
-0.00710253
-0.00815183
-0.00839722
-0.00759806
-0.000189739
-0.00378247
-0.000510413
-0.00554304
-0.000858557
-0.00568104
-0.00120662
-0.00559306
-0.00155497
-0.00556973
-0.00190622
-0.00559131
-0.00226241
-0.00565048
-0.00262505
-0.00573635
-0.00299543
-0.00584512
-0.00337458
-0.0059719
-0.0037634
-0.00611459
-0.00416269
-0.00627078
-0.00457318
-0.00643927
-0.00499553
-0.00661873
-0.00543032
-0.00680847
-0.00587807
-0.00700808
-0.00633953
-0.00721752
-0.00681574
-0.0074357
-0.00730729
-0.00766029
-0.00789089
-0.00781362
-0.000205154
-0.00357732
-0.000540347
-0.00520785
-0.000899539
-0.00532185
-0.00125733
-0.00523527
-0.00161502
-0.00521203
-0.00197538
-0.00523095
-0.00234053
-0.00528532
-0.00271209
-0.00536479
-0.00309138
-0.00546583
-0.0034795
-0.00558378
-0.00387739
-0.0057167
-0.00428588
-0.00586229
-0.00470571
-0.00601943
-0.00513758
-0.00618686
-0.00558208
-0.00636397
-0.00603981
-0.00655036
-0.00651151
-0.00674582
-0.00699802
-0.00694919
-0.00749977
-0.00715853
-0.00737408
-0.00801659
-0.000219487
-0.00335783
-0.000568186
-0.00485915
-0.00093766
-0.00495237
-0.00130456
-0.00486836
-0.00167101
-0.00484559
-0.00203988
-0.00486208
-0.00241343
-0.00491177
-0.00279332
-0.0049849
-0.00318096
-0.00507819
-0.00357748
-0.00518727
-0.00398385
-0.00531033
-0.00440094
-0.0054452
-0.00482952
-0.00559085
-0.0052703
-0.00574609
-0.00572389
-0.00591038
-0.00619095
-0.0060833
-0.00667219
-0.00626458
-0.00716834
-0.00645305
-0.0076798
-0.00664707
-0.0068473
-0.00820658
-0.000232712
-0.00312512
-0.000593913
-0.00449795
-0.000972906
-0.00457338
-0.00134828
-0.00449299
-0.00172287
-0.004471
-0.00209966
-0.00448529
-0.00248102
-0.00453042
-0.00286867
-0.00459725
-0.00326407
-0.00468279
-0.00366839
-0.00478295
-0.00408265
-0.00489606
-0.00450774
-0.00502011
-0.00494446
-0.00515413
-0.00539352
-0.00529702
-0.00585559
-0.00544831
-0.00633133
-0.00560757
-0.00682143
-0.00577448
-0.00732656
-0.00594792
-0.00784714
-0.00612649
-0.00631112
-0.00838332
-0.000244801
-0.00288032
-0.000617518
-0.00412523
-0.00100527
-0.00418563
-0.00138846
-0.0041098
-0.00177057
-0.00408889
-0.00215468
-0.00410119
-0.00254324
-0.00414186
-0.00293804
-0.00420245
-0.0033406
-0.00428023
-0.00375212
-0.00437142
-0.00417367
-0.00447452
-0.00460614
-0.00458764
-0.00505037
-0.0047099
-0.00550709
-0.0048403
-0.00597699
-0.00497841
-0.00646074
-0.00512382
-0.00695902
-0.0052762
-0.00747247
-0.00543447
-0.00800153
-0.00559743
-0.0057662
-0.00854645
-0.000255849
-0.00262447
-0.000639003
-0.00374208
-0.00103473
-0.0037899
-0.00142508
-0.00371945
-0.00181407
-0.00369989
-0.00220487
-0.00371039
-0.00260002
-0.00374671
-0.00300137
-0.0038011
-0.00341047
-0.00387112
-0.00382859
-0.00395331
-0.00425679
-0.00404631
-0.00469602
-0.00414841
-0.00514713
-0.0042588
-0.00561086
-0.00437657
-0.00608792
-0.00450134
-0.00657901
-0.00463274
-0.00708479
-0.00477041
-0.00760589
-0.00491337
-0.00814277
-0.00506055
-0.0052132
-0.00869577
-0.000265895
-0.00235857
-0.00065837
-0.0033496
-0.00106129
-0.00338698
-0.00145811
-0.00332264
-0.00185333
-0.00330466
-0.00225019
-0.00331354
-0.0026513
-0.00334559
-0.00305857
-0.00339383
-0.00347361
-0.00345608
-0.00389768
-0.00352924
-0.00433191
-0.00361208
-0.00477726
-0.00370306
-0.00523459
-0.00380147
-0.00570467
-0.00390649
-0.00618823
-0.00401778
-0.00668596
-0.004135
-0.00719854
-0.00425783
-0.00772659
-0.00438532
-0.00827056
-0.00451658
-0.00465288
-0.00883087
-0.000274892
-0.00208368
-0.000675613
-0.00294888
-0.00108494
-0.00297765
-0.00148753
-0.00292005
-0.00188833
-0.00290387
-0.00229059
-0.00291128
-0.00269703
-0.00293915
-0.00310959
-0.00298127
-0.00352992
-0.00303575
-0.00395932
-0.00309984
-0.00439894
-0.00317246
-0.00484975
-0.00325225
-0.00531264
-0.00333858
-0.0057884
-0.00343074
-0.00627777
-0.00352841
-0.00678146
-0.00363132
-0.00730014
-0.00373915
-0.00783443
-0.00385103
-0.0083848
-0.00396621
-0.00408595
-0.00895173
-0.000282808
-0.00180087
-0.000690728
-0.00254096
-0.00110566
-0.00256271
-0.00151333
-0.00251238
-0.00191902
-0.00249818
-0.00232603
-0.00250427
-0.00273716
-0.00252802
-0.00315437
-0.00256406
-0.00357935
-0.00261077
-0.00401343
-0.00266576
-0.00445779
-0.0027281
-0.0049134
-0.00279663
-0.00538119
-0.0028708
-0.00586194
-0.00294998
-0.00635642
-0.00303393
-0.00686534
-0.0031224
-0.00738939
-0.00321509
-0.00792918
-0.00331125
-0.00848515
-0.00341023
-0.00351323
-0.00905787
-0.000289627
-0.00151125
-0.000703706
-0.00212688
-0.00112346
-0.00214296
-0.00153549
-0.00210035
-0.00194539
-0.00208828
-0.00235649
-0.00209317
-0.00277165
-0.00211287
-0.00319285
-0.00214286
-0.00362184
-0.00218179
-0.00405995
-0.00222765
-0.00450837
-0.00227967
-0.00496813
-0.00233688
-0.00544012
-0.0023988
-0.00592517
-0.00246493
-0.00642406
-0.00253505
-0.0069375
-0.00260895
-0.0074662
-0.00268639
-0.00801073
-0.00276671
-0.00857159
-0.00284938
-0.00293547
-0.00914935
-0.000295333
-0.00121591
-0.000714544
-0.00170767
-0.00113831
-0.00171919
-0.00155399
-0.00168467
-0.00196741
-0.00167486
-0.00238193
-0.00167865
-0.00280045
-0.00169435
-0.003225
-0.00171831
-0.00365733
-0.00174946
-0.00409881
-0.00178617
-0.00455064
-0.00182784
-0.00501385
-0.00187367
-0.00548937
-0.00192329
-0.00597802
-0.00197628
-0.00648059
-0.00203249
-0.00699781
-0.00209173
-0.00753039
-0.00215381
-0.00807891
-0.00221819
-0.00864385
-0.00228444
-0.00235348
-0.00922584
-0.000299919
-0.000915994
-0.000723236
-0.00128435
-0.00115022
-0.00129221
-0.00156882
-0.00126606
-0.00198507
-0.00125862
-0.00240233
-0.00126139
-0.00282355
-0.00127313
-0.00325078
-0.00129108
-0.00368579
-0.00131444
-0.00412996
-0.00134199
-0.00458453
-0.00137327
-0.00505051
-0.00140768
-0.00552886
-0.00144494
-0.0060204