0 	0.517293 	0 	-0.588631
0 	0.55252 	0 	-0.535659
0 	0.589056 	0 	-0.51395
0 	0.62695 	0 	-0.483928
0 	0.666252 	-1.73472e-18 	-0.458598
0 	0.707014 	-3.46945e-18 	-0.43234
0 	0.749291 	-2.08167e-18 	-0.406524
0 	0.793139 	-6.93889e-19 	-0.380498
0 	0.838615 	-6.93889e-19 	-0.354462
0 	0.885781 	2.42861e-18 	-0.328487
0 	0.9347 	6.93889e-18 	-0.302762
