# Probe 0 (2 -0.5 0)
# Probe 1 (2 0.5 0)
#       Probe             0             1
#        Time
        0.001      -53.9798      -53.9719
        0.002       3.27465       3.27374
        0.003     -0.236019     -0.238871
        0.004     -0.143417     -0.144885
        0.005     -0.136176     -0.137253
        0.006     -0.144793     -0.145554
        0.007     -0.153687     -0.154175
        0.008     -0.162788     -0.163113
        0.009     -0.170518     -0.170728
         0.01     -0.176758     -0.176894
        0.011     -0.181597     -0.181683
        0.012     -0.185236     -0.185289
        0.013     -0.187873     -0.187903
        0.014     -0.189679     -0.189693
        0.015     -0.190794     -0.190798
        0.016     -0.191336     -0.191333
        0.017     -0.191402     -0.191394
        0.018     -0.191069     -0.191058
        0.019     -0.190412     -0.190397
         0.02     -0.189479     -0.189463
        0.021     -0.188313     -0.188294
        0.022     -0.186962     -0.186944
        0.023     -0.185455     -0.185436
        0.024     -0.183822     -0.183802
        0.025     -0.182089     -0.182069
        0.026     -0.180272     -0.180253
        0.027     -0.178393     -0.178373
        0.028     -0.176466     -0.176446
        0.029     -0.174501     -0.174481
         0.03     -0.172511     -0.172492
        0.031     -0.170512     -0.170493
        0.032     -0.168506     -0.168487
        0.033     -0.166499     -0.166481
        0.034     -0.164501     -0.164483
        0.035     -0.162514     -0.162497
        0.036     -0.160544     -0.160527
        0.037     -0.158596     -0.158579
        0.038     -0.156669     -0.156653
        0.039     -0.154767     -0.154751
         0.04     -0.152893     -0.152877
        0.041     -0.151049     -0.151034
        0.042     -0.149235     -0.149221
        0.043      -0.14745     -0.147436
        0.044     -0.145699     -0.145686
        0.045     -0.143984     -0.143971
        0.046     -0.142297     -0.142284
        0.047     -0.140641     -0.140629
        0.048     -0.139022      -0.13901
        0.049     -0.137434     -0.137423
         0.05     -0.135879     -0.135868
        0.051     -0.134357     -0.134346
        0.052     -0.132867     -0.132857
        0.053     -0.131407     -0.131397
        0.054     -0.129975     -0.129966
        0.055     -0.128574     -0.128564
        0.056     -0.127205     -0.127196
        0.057     -0.125864     -0.125856
        0.058     -0.124552     -0.124544
        0.059     -0.123267     -0.123259
         0.06      -0.12201     -0.122002
        0.061     -0.120778     -0.120771
        0.062     -0.119574     -0.119567
        0.063     -0.118394     -0.118387
        0.064     -0.117238     -0.117231
        0.065     -0.116107     -0.116101
        0.066     -0.114997     -0.114991
        0.067     -0.113911     -0.113905
        0.068     -0.112847     -0.112841
        0.069     -0.111805       -0.1118
         0.07     -0.110784     -0.110779
        0.071     -0.109782     -0.109777
        0.072     -0.108805       -0.1088
        0.073     -0.107842     -0.107838
        0.074     -0.106898     -0.106894
        0.075     -0.105973     -0.105969
        0.076     -0.105067     -0.105062
        0.077     -0.104177     -0.104173
        0.078     -0.103299     -0.103294
        0.079     -0.102442     -0.102437
         0.08       -0.1016     -0.101596
        0.081     -0.100776     -0.100772
        0.082    -0.0999663    -0.0999623
        0.083    -0.0991718    -0.0991678
        0.084    -0.0983917    -0.0983879
        0.085    -0.0976251    -0.0976214
        0.086    -0.0968722    -0.0968686
        0.087    -0.0961309    -0.0961274
        0.088    -0.0954064     -0.095403
        0.089    -0.0946926    -0.0946892
         0.09    -0.0939898    -0.0939865
        0.091    -0.0932998    -0.0932966
        0.092    -0.0926224    -0.0926193
        0.093    -0.0919542    -0.0919511
        0.094    -0.0912975    -0.0912946
        0.095    -0.0906532    -0.0906503
        0.096     -0.090018    -0.0900152
        0.097    -0.0893929    -0.0893902
        0.098     -0.088778    -0.0887754
        0.099    -0.0881727    -0.0881701
          0.1    -0.0875782    -0.0875757
        0.101    -0.0869912    -0.0869887
        0.102    -0.0864146    -0.0864122
        0.103    -0.0858463    -0.0858439
        0.104    -0.0852867    -0.0852843
        0.105    -0.0847355    -0.0847332
        0.106    -0.0841935    -0.0841913
        0.107    -0.0836587    -0.0836565
        0.108    -0.0831308    -0.0831286
        0.109    -0.0826118    -0.0826097
         0.11       -0.0821     -0.082098
        0.111     -0.081596     -0.081594
        0.112    -0.0810988    -0.0810968
        0.113    -0.0806085    -0.0806065
        0.114    -0.0801246    -0.0801227
        0.115    -0.0796463    -0.0796444
        0.116    -0.0791787    -0.0791768
        0.117    -0.0787159    -0.0787141
        0.118    -0.0782593    -0.0782575
        0.119     -0.077807    -0.0778052
         0.12    -0.0773617      -0.07736
        0.121    -0.0769229    -0.0769211
        0.122    -0.0764891    -0.0764874
        0.123    -0.0760611    -0.0760593
        0.124    -0.0756371    -0.0756355
        0.125      -0.07522    -0.0752184
        0.126    -0.0748079    -0.0748062
        0.127     -0.074401    -0.0743994
        0.128     -0.073999    -0.0739974
        0.129     -0.073603    -0.0736014
         0.13    -0.0732112    -0.0732096
        0.131    -0.0728238    -0.0728223
        0.132    -0.0724415      -0.07244
        0.133    -0.0720635     -0.072062
        0.134    -0.0716905     -0.071689
        0.135    -0.0713219    -0.0713204
        0.136    -0.0709571    -0.0709556
        0.137    -0.0705971    -0.0705956
        0.138     -0.070242    -0.0702405
        0.139    -0.0698879    -0.0698865
         0.14    -0.0695408    -0.0695394
        0.141    -0.0691965    -0.0691951
        0.142    -0.0688552    -0.0688538
        0.143    -0.0685189    -0.0685175
        0.144    -0.0681846    -0.0681832
        0.145    -0.0678586    -0.0678573
        0.146     -0.067533    -0.0675317
        0.147    -0.0672109    -0.0672096
        0.148     -0.066893    -0.0668917
        0.149    -0.0665776    -0.0665763
         0.15    -0.0662652    -0.0662639
        0.151    -0.0659553     -0.065954
        0.152    -0.0656527    -0.0656515
        0.153    -0.0653506    -0.0653493
        0.154     -0.065051    -0.0650498
        0.155    -0.0647546    -0.0647533
        0.156    -0.0644616    -0.0644603
        0.157    -0.0641715    -0.0641703
        0.158    -0.0638845    -0.0638832
        0.159    -0.0636011    -0.0635999
         0.16    -0.0633168    -0.0633156
        0.161    -0.0630385    -0.0630373
        0.162    -0.0627626    -0.0627614
        0.163    -0.0624891    -0.0624879
        0.164    -0.0622181    -0.0622169
        0.165    -0.0619482     -0.061947
        0.166     -0.061685    -0.0616839
        0.167    -0.0614229    -0.0614217
        0.168    -0.0611609    -0.0611597
        0.169    -0.0609027    -0.0609015
         0.17    -0.0606469    -0.0606458
        0.171    -0.0603933    -0.0603921
        0.172    -0.0601421     -0.060141
        0.173    -0.0598909    -0.0598897
        0.174    -0.0596444    -0.0596433
        0.175    -0.0593999    -0.0593987
        0.176    -0.0591574    -0.0591563
        0.177     -0.058917    -0.0589159
        0.178    -0.0586772     -0.058676
        0.179    -0.0584447    -0.0584436
         0.18    -0.0582111      -0.05821
        0.181    -0.0579793    -0.0579781
        0.182    -0.0577499    -0.0577489
        0.183    -0.0575211      -0.05752
        0.184    -0.0572955    -0.0572944
        0.185    -0.0570718    -0.0570707
        0.186    -0.0568501     -0.056849
        0.187    -0.0566297    -0.0566286
        0.188    -0.0564112    -0.0564101
        0.189    -0.0561947    -0.0561936
         0.19    -0.0559797    -0.0559786
        0.191    -0.0557665    -0.0557655
        0.192    -0.0555548    -0.0555538
        0.193    -0.0553435    -0.0553425
        0.194    -0.0551386    -0.0551375
        0.195    -0.0549318    -0.0549308
        0.196     -0.054727     -0.054726
        0.197    -0.0545241    -0.0545231
        0.198    -0.0543226    -0.0543216
        0.199    -0.0541225    -0.0541215
          0.2    -0.0539242    -0.0539232
        0.201    -0.0537274    -0.0537263
        0.202    -0.0535319    -0.0535309
        0.203    -0.0533381    -0.0533371
        0.204    -0.0531465    -0.0531455
        0.205    -0.0529551    -0.0529541
        0.206     -0.052766     -0.052765
        0.207    -0.0525783    -0.0525773
        0.208    -0.0523903    -0.0523894
        0.209    -0.0522054    -0.0522044
         0.21     -0.052022     -0.052021
        0.211    -0.0518398    -0.0518388
        0.212    -0.0516592    -0.0516582
        0.213    -0.0514792    -0.0514783
        0.214    -0.0513005    -0.0512995
        0.215    -0.0511216    -0.0511207
        0.216    -0.0509481    -0.0509472
        0.217    -0.0507732    -0.0507723
        0.218    -0.0505993    -0.0505984
        0.219    -0.0504252    -0.0504243
         0.22    -0.0502574    -0.0502565
        0.221    -0.0500878    -0.0500869
        0.222    -0.0499194    -0.0499185
        0.223    -0.0497522    -0.0497513
        0.224     -0.049586    -0.0495851
        0.225    -0.0494209    -0.0494199
        0.226    -0.0492568    -0.0492559
        0.227     -0.049094    -0.0490931
        0.228    -0.0489322    -0.0489313
        0.229    -0.0487714    -0.0487705
         0.23    -0.0486121    -0.0486112
        0.231    -0.0484539     -0.048453
        0.232    -0.0482962    -0.0482953
        0.233    -0.0481401    -0.0481392
        0.234    -0.0479855    -0.0479846
        0.235    -0.0478301    -0.0478292
        0.236    -0.0476774    -0.0476765
        0.237    -0.0475252    -0.0475243
        0.238    -0.0473741    -0.0473732
        0.239    -0.0472237    -0.0472228
         0.24    -0.0470743    -0.0470734
        0.241    -0.0469259     -0.046925
        0.242    -0.0467783    -0.0467774
        0.243    -0.0466316    -0.0466307
        0.244    -0.0464844    -0.0464836
        0.245    -0.0463426    -0.0463418
        0.246    -0.0461991    -0.0461983
        0.247    -0.0460562    -0.0460554
        0.248    -0.0459143    -0.0459135
        0.249    -0.0457732    -0.0457724
         0.25     -0.045633    -0.0456321
        0.251    -0.0454939    -0.0454931
        0.252    -0.0453555    -0.0453547
        0.253    -0.0452181    -0.0452173
        0.254    -0.0450813    -0.0450805
        0.255     -0.044946    -0.0449451
        0.256    -0.0448091    -0.0448082
        0.257    -0.0446765    -0.0446757
        0.258    -0.0445431    -0.0445423
        0.259    -0.0444104    -0.0444096
         0.26    -0.0442786    -0.0442778
        0.261    -0.0441476    -0.0441468
        0.262    -0.0440178    -0.0440169
        0.263    -0.0438879    -0.0438871
        0.264    -0.0437597    -0.0437589
        0.265    -0.0436325    -0.0436316
        0.266    -0.0435036    -0.0435028
        0.267    -0.0433772    -0.0433764
        0.268      -0.04325    -0.0432492
        0.269    -0.0431278    -0.0431271
         0.27    -0.0430036    -0.0430029
        0.271    -0.0428801    -0.0428793
        0.272    -0.0427573    -0.0427565
        0.273    -0.0426351    -0.0426343
        0.274    -0.0425136    -0.0425128
        0.275    -0.0423915    -0.0423907
        0.276    -0.0422709    -0.0422701
        0.277    -0.0421551    -0.0421543
        0.278    -0.0420362    -0.0420354
        0.279     -0.041918    -0.0419173
         0.28    -0.0418005    -0.0417997
        0.281    -0.0416839    -0.0416831
        0.282    -0.0415678     -0.041567
        0.283    -0.0414525    -0.0414518
        0.284    -0.0413375    -0.0413368
        0.285    -0.0412231    -0.0412224
        0.286    -0.0411094    -0.0411086
        0.287    -0.0409963    -0.0409955
        0.288    -0.0408841    -0.0408833
        0.289    -0.0407725    -0.0407717
         0.29    -0.0406622    -0.0406615
        0.291    -0.0405505    -0.0405498
        0.292    -0.0404407    -0.0404399
        0.293    -0.0403313    -0.0403306
        0.294    -0.0402226    -0.0402218
        0.295    -0.0401147     -0.040114
        0.296    -0.0400071    -0.0400064
        0.297    -0.0399002    -0.0398995
        0.298    -0.0397939    -0.0397932
        0.299    -0.0396882    -0.0396875
          0.3    -0.0395826    -0.0395818
        0.301    -0.0394775    -0.0394768
        0.302    -0.0393734    -0.0393727
        0.303    -0.0392695    -0.0392687
        0.304    -0.0391669    -0.0391662
        0.305    -0.0390636    -0.0390628
        0.306    -0.0389617     -0.038961
        0.307    -0.0388613    -0.0388605
        0.308    -0.0387604    -0.0387597
        0.309    -0.0386598    -0.0386591
         0.31    -0.0385599    -0.0385591
        0.311    -0.0384606    -0.0384599
        0.312    -0.0383614    -0.0383607
        0.313    -0.0382632    -0.0382625
        0.314    -0.0381651    -0.0381644
        0.315    -0.0380675    -0.0380668
        0.316    -0.0379703    -0.0379697
        0.317    -0.0378737     -0.037873
        0.318    -0.0377776    -0.0377769
        0.319     -0.037682    -0.0376813
         0.32     -0.037587    -0.0375863
        0.321    -0.0374924    -0.0374917
        0.322    -0.0373982    -0.0373975
        0.323    -0.0373045    -0.0373038
        0.324    -0.0372116    -0.0372109
        0.325    -0.0371187     -0.037118
        0.326    -0.0370261    -0.0370255
        0.327    -0.0369324    -0.0369318
        0.328    -0.0368439    -0.0368432
        0.329    -0.0367535    -0.0367529
         0.33    -0.0366619    -0.0366613
        0.331    -0.0365722    -0.0365716
        0.332    -0.0364827     -0.036482
        0.333    -0.0363934    -0.0363927
        0.334    -0.0362966    -0.0362952
        0.335    -0.0362087    -0.0362073
        0.336     -0.036121    -0.0361197
        0.337    -0.0360336    -0.0360322
        0.338    -0.0359467    -0.0359453
        0.339    -0.0358604    -0.0358591
         0.34    -0.0357731    -0.0357717
        0.341    -0.0356869    -0.0356855
        0.342    -0.0356015    -0.0356001
        0.343    -0.0355166    -0.0355152
        0.344    -0.0354319    -0.0354305
        0.345    -0.0353476    -0.0353462
        0.346    -0.0352637    -0.0352623
        0.347    -0.0351802    -0.0351788
        0.348    -0.0350975    -0.0350961
        0.349    -0.0350141    -0.0350128
         0.35    -0.0349294    -0.0349281
        0.351    -0.0348506    -0.0348492
        0.352    -0.0347689    -0.0347676
        0.353    -0.0346873    -0.0346859
        0.354     -0.034604    -0.0346026
        0.355    -0.0345272    -0.0345258
        0.356     -0.034447    -0.0344456
        0.357     -0.034367    -0.0343657
        0.358    -0.0342875    -0.0342861
        0.359    -0.0342086    -0.0342072
         0.36    -0.0341298    -0.0341284
        0.361    -0.0340515    -0.0340501
        0.362    -0.0339734    -0.0339721
        0.363    -0.0338959    -0.0338945
        0.364    -0.0338187    -0.0338173
        0.365    -0.0337417    -0.0337404
        0.366     -0.033665    -0.0336637
        0.367    -0.0335886    -0.0335873
        0.368    -0.0335126    -0.0335112
        0.369     -0.033437    -0.0334357
         0.37    -0.0333617    -0.0333604
        0.371    -0.0332867    -0.0332854
        0.372    -0.0332122    -0.0332108
        0.373    -0.0331384    -0.0331371
        0.374    -0.0330637    -0.0330624
        0.375    -0.0329901    -0.0329888
        0.376     -0.032917    -0.0329157
        0.377    -0.0328442    -0.0328428
        0.378    -0.0327713      -0.03277
        0.379    -0.0326973     -0.032696
         0.38    -0.0326277    -0.0326264
        0.381    -0.0325561    -0.0325548
        0.382    -0.0324846    -0.0324833
        0.383    -0.0324136    -0.0324123
        0.384    -0.0323428    -0.0323415
        0.385    -0.0322726    -0.0322712
        0.386    -0.0322023     -0.032201
        0.387    -0.0321319    -0.0321306
        0.388    -0.0320626    -0.0320613
        0.389    -0.0319933     -0.031992
         0.39    -0.0319245    -0.0319232
        0.391    -0.0318555    -0.0318542
        0.392     -0.031787    -0.0317857
        0.393    -0.0317188    -0.0317175
        0.394     -0.031651    -0.0316497
        0.395    -0.0315834    -0.0315821
        0.396    -0.0315161    -0.0315149
        0.397    -0.0314497    -0.0314484
        0.398    -0.0313818    -0.0313806
        0.399    -0.0313137    -0.0313124
          0.4      -0.03125    -0.0312487
        0.401    -0.0311843     -0.031183
        0.402    -0.0311187    -0.0311174
        0.403    -0.0310535    -0.0310522
        0.404    -0.0309884    -0.0309872
        0.405    -0.0309236    -0.0309224
        0.406    -0.0308591    -0.0308578
        0.407    -0.0307948    -0.0307935
        0.408    -0.0307307    -0.0307294
        0.409    -0.0306673     -0.030666
         0.41    -0.0306039    -0.0306026
        0.411    -0.0305409    -0.0305396
        0.412    -0.0304779    -0.0304767
        0.413    -0.0304152     -0.030414
        0.414    -0.0303528    -0.0303515
        0.415    -0.0302908    -0.0302895
        0.416     -0.030229    -0.0302277
        0.417    -0.0301674    -0.0301662
        0.418     -0.030106    -0.0301048
        0.419    -0.0300449    -0.0300437
         0.42    -0.0299841    -0.0299829
        0.421    -0.0299236    -0.0299223
        0.422    -0.0298632    -0.0298619
        0.423     -0.029803    -0.0298018
        0.424    -0.0297435    -0.0297423
        0.425    -0.0296832     -0.029682
        0.426    -0.0296239    -0.0296227
        0.427    -0.0295648    -0.0295636
        0.428    -0.0295058    -0.0295046
        0.429    -0.0294472    -0.0294459
         0.43    -0.0293888    -0.0293876
        0.431    -0.0293306    -0.0293294
        0.432    -0.0292726    -0.0292714
        0.433    -0.0292144    -0.0292132
        0.434    -0.0291569    -0.0291557
        0.435    -0.0291006    -0.0290994
        0.436    -0.0290435    -0.0290423
        0.437    -0.0289866    -0.0289854
        0.438    -0.0289299    -0.0289287
        0.439    -0.0288735    -0.0288723
         0.44    -0.0288152     -0.028814
        0.441    -0.0287623    -0.0287611
        0.442    -0.0287066    -0.0287054
        0.443     -0.028651    -0.0286498
        0.444    -0.0285957    -0.0285946
        0.445    -0.0285408    -0.0285396
        0.446    -0.0284859    -0.0284847
        0.447    -0.0284311      -0.02843
        0.448    -0.0283768    -0.0283756
        0.449    -0.0283227    -0.0283216
         0.45    -0.0282687    -0.0282675
        0.451    -0.0282145    -0.0282133
        0.452    -0.0281611    -0.0281599
        0.453    -0.0281091    -0.0281079
        0.454    -0.0280542    -0.0280531
        0.455    -0.0280015    -0.0280003
        0.456    -0.0279489    -0.0279477
        0.457    -0.0278965    -0.0278953
        0.458    -0.0278442    -0.0278431
        0.459    -0.0277921     -0.027791
         0.46    -0.0277404    -0.0277392
        0.461    -0.0276888    -0.0276877
        0.462    -0.0276374    -0.0276363
        0.463    -0.0275862     -0.027585
        0.464     -0.027535    -0.0275339
        0.465    -0.0274843    -0.0274831
        0.466    -0.0274336    -0.0274325
        0.467     -0.027383    -0.0273818
        0.468    -0.0273311      -0.02733
        0.469    -0.0272831     -0.027282
         0.47    -0.0272336    -0.0272325
        0.471     -0.027184    -0.0271829
        0.472    -0.0271345    -0.0271334
        0.473    -0.0270854    -0.0270842
        0.474    -0.0270363    -0.0270351
        0.475    -0.0269873    -0.0269862
        0.476    -0.0269386    -0.0269375
        0.477    -0.0268901    -0.0268889
        0.478    -0.0268417    -0.0268406
        0.479    -0.0267936    -0.0267925
         0.48    -0.0267457    -0.0267446
        0.481    -0.0266979    -0.0266969
        0.482    -0.0266504    -0.0266493
        0.483    -0.0266032    -0.0266021
        0.484    -0.0265558    -0.0265547
        0.485    -0.0265087    -0.0265076
        0.486     -0.026462    -0.0264609
        0.487    -0.0264153    -0.0264143
        0.488    -0.0263688    -0.0263677
        0.489     -0.026322    -0.0263209
         0.49    -0.0262756    -0.0262746
        0.491    -0.0262315    -0.0262304
        0.492    -0.0261858    -0.0261848
        0.493    -0.0261402    -0.0261392
        0.494    -0.0260949    -0.0260938
        0.495    -0.0260497    -0.0260487
        0.496    -0.0260046    -0.0260036
        0.497    -0.0259598    -0.0259588
        0.498    -0.0259152    -0.0259141
        0.499    -0.0258708    -0.0258697
          0.5    -0.0258264    -0.0258254
        0.501    -0.0257823    -0.0257812
        0.502    -0.0257383    -0.0257373
        0.503    -0.0256945    -0.0256935
        0.504     -0.025651      -0.02565
        0.505    -0.0256076    -0.0256066
        0.506    -0.0255648    -0.0255637
        0.507     -0.025521    -0.0255199
        0.508    -0.0254781     -0.025477
        0.509    -0.0254353    -0.0254342
         0.51    -0.0253927    -0.0253916
        0.511    -0.0253503    -0.0253492
        0.512    -0.0253081     -0.025307
        0.513    -0.0252661     -0.025265
        0.514    -0.0252241    -0.0252231
        0.515    -0.0251823    -0.0251813
        0.516    -0.0251407    -0.0251397
        0.517    -0.0251001     -0.025099
        0.518    -0.0250558    -0.0250547
        0.519    -0.0250167    -0.0250157
         0.52    -0.0249759    -0.0249749
        0.521    -0.0249351    -0.0249341
        0.522    -0.0248945    -0.0248936
        0.523    -0.0248541    -0.0248531
        0.524    -0.0248139    -0.0248128
        0.525    -0.0247738    -0.0247728
        0.526    -0.0247338    -0.0247327
        0.527    -0.0246937    -0.0246927
        0.528    -0.0246541    -0.0246531
        0.529    -0.0246145    -0.0246135
         0.53    -0.0245752    -0.0245742
        0.531     -0.024536     -0.024535
        0.532     -0.024497     -0.024496
        0.533    -0.0244581    -0.0244571
        0.534    -0.0244196    -0.0244186
        0.535     -0.024381      -0.02438
        0.536    -0.0243425    -0.0243415
        0.537    -0.0243042    -0.0243032
        0.538     -0.024266    -0.0242651
        0.539    -0.0242278    -0.0242268
         0.54    -0.0241903    -0.0241894
        0.541    -0.0241527    -0.0241517
        0.542    -0.0241152    -0.0241143
        0.543    -0.0240778    -0.0240769
        0.544    -0.0240406    -0.0240396
        0.545    -0.0240035    -0.0240025
        0.546    -0.0239666    -0.0239657
        0.547    -0.0239298    -0.0239289
        0.548    -0.0238931    -0.0238922
        0.549    -0.0238565    -0.0238556
         0.55    -0.0238188    -0.0238178
        0.551    -0.0237846    -0.0237836
        0.552    -0.0237487    -0.0237477
        0.553    -0.0237128    -0.0237119
        0.554    -0.0236772    -0.0236763
        0.555    -0.0236412    -0.0236403
        0.556    -0.0236055    -0.0236046
        0.557    -0.0235704    -0.0235694
        0.558    -0.0235356    -0.0235347
        0.559    -0.0235007    -0.0234998
         0.56    -0.0234659    -0.0234649
        0.561    -0.0234313    -0.0234303
        0.562    -0.0233966    -0.0233957
        0.563    -0.0233621    -0.0233612
        0.564    -0.0233278    -0.0233268
        0.565    -0.0232935    -0.0232926
        0.566    -0.0232594    -0.0232585
        0.567    -0.0232257    -0.0232247
        0.568    -0.0231918    -0.0231909
        0.569    -0.0231582    -0.0231572
         0.57    -0.0231245    -0.0231236
        0.571    -0.0230909      -0.02309
        0.572    -0.0230554    -0.0230544
        0.573     -0.023026    -0.0230251
        0.574     -0.022993    -0.0229921
        0.575    -0.0229599     -0.022959
        0.576    -0.0229264    -0.0229255
        0.577    -0.0228944    -0.0228934
        0.578    -0.0228627    -0.0228618
        0.579    -0.0228305    -0.0228296
         0.58    -0.0227984    -0.0227975
        0.581    -0.0227664    -0.0227655
        0.582    -0.0227345    -0.0227336
        0.583    -0.0227028    -0.0227019
        0.584    -0.0226712    -0.0226703
        0.585    -0.0226397    -0.0226388
        0.586    -0.0226087    -0.0226078
        0.587    -0.0225776    -0.0225768
        0.588    -0.0225461    -0.0225452
        0.589    -0.0225152    -0.0225143
         0.59    -0.0224845    -0.0224836
        0.591    -0.0224539     -0.022453
        0.592    -0.0224236    -0.0224227
        0.593    -0.0223939    -0.0223931
        0.594    -0.0223622    -0.0223613
        0.595    -0.0223323    -0.0223314
        0.596    -0.0223025    -0.0223016
        0.597    -0.0222728     -0.022272
        0.598    -0.0222433    -0.0222424
        0.599    -0.0222137    -0.0222128
          0.6    -0.0221843    -0.0221835
        0.601     -0.022155    -0.0221542
        0.602    -0.0221258     -0.022125
        0.603    -0.0220968    -0.0220959
        0.604    -0.0220679     -0.022067
        0.605     -0.022039    -0.0220382
        0.606    -0.0220095    -0.0220087
        0.607    -0.0219821    -0.0219813
        0.608    -0.0219538     -0.021953
        0.609    -0.0219257    -0.0219248
         0.61    -0.0218974    -0.0218966
        0.611    -0.0218691    -0.0218683
        0.612    -0.0218408      -0.02184
        0.613    -0.0218141    -0.0218132
        0.614    -0.0217864    -0.0217856
        0.615    -0.0217588     -0.021758
        0.616    -0.0217314    -0.0217306
        0.617    -0.0217041    -0.0217032
        0.618    -0.0216769    -0.0216761
        0.619    -0.0216499     -0.021649
         0.62    -0.0216228     -0.021622
        0.621    -0.0215964    -0.0215956
        0.622    -0.0215697    -0.0215689
        0.623    -0.0215431    -0.0215423
        0.624    -0.0215167    -0.0215159
        0.625    -0.0214906    -0.0214897
        0.626    -0.0214644    -0.0214636
        0.627    -0.0214385    -0.0214376
        0.628    -0.0214127    -0.0214119
        0.629    -0.0213871    -0.0213863
         0.63    -0.0213611    -0.0213604
        0.631    -0.0213357    -0.0213349
        0.632    -0.0213104    -0.0213096
        0.633    -0.0212851    -0.0212843
        0.634    -0.0212599    -0.0212592
        0.635    -0.0212349    -0.0212341
        0.636    -0.0212099    -0.0212091
        0.637    -0.0211851    -0.0211843
        0.638    -0.0211604    -0.0211596
        0.639    -0.0211359    -0.0211351
         0.64    -0.0211115    -0.0211107
        0.641    -0.0210871    -0.0210864
        0.642     -0.021063    -0.0210622
        0.643    -0.0210389    -0.0210381
        0.644    -0.0210149    -0.0210142
        0.645    -0.0209911    -0.0209904
        0.646    -0.0209674    -0.0209666
        0.647    -0.0209438     -0.020943
        0.648    -0.0209204    -0.0209196
        0.649     -0.020897    -0.0208963
         0.65    -0.0208738    -0.0208731
        0.651    -0.0208508    -0.0208501
        0.652    -0.0208279    -0.0208271
        0.653     -0.020805    -0.0208043
        0.654    -0.0207823    -0.0207815
        0.655    -0.0207596    -0.0207589
        0.656    -0.0207371    -0.0207363
        0.657    -0.0207146    -0.0207139
        0.658    -0.0206922    -0.0206915
        0.659    -0.0206701    -0.0206693
         0.66     -0.020648    -0.0206472
        0.661     -0.020626    -0.0206252
        0.662    -0.0206041    -0.0206034
        0.663    -0.0205824    -0.0205816
        0.664    -0.0205608    -0.0205601
        0.665    -0.0205393    -0.0205385
        0.666    -0.0205179    -0.0205172
        0.667    -0.0204966    -0.0204959
        0.668    -0.0204755    -0.0204747
        0.669    -0.0204544    -0.0204537
         0.67    -0.0204334    -0.0204327
        0.671    -0.0204112    -0.0204105
        0.672    -0.0203924    -0.0203917
        0.673    -0.0203719    -0.0203712
        0.674    -0.0203513    -0.0203506
        0.675    -0.0203309    -0.0203302
        0.676    -0.0203107      -0.02031
        0.677    -0.0202905    -0.0202898
        0.678    -0.0202705    -0.0202698
        0.679    -0.0202507      -0.02025
         0.68    -0.0202309    -0.0202302
        0.681    -0.0202112    -0.0202106
        0.682    -0.0201917     -0.020191
        0.683    -0.0201723    -0.0201716
        0.684    -0.0201532    -0.0201526
        0.685    -0.0201329    -0.0201322
        0.686    -0.0201135    -0.0201128
        0.687     -0.020096    -0.0200953
        0.688    -0.0200773    -0.0200767
        0.689    -0.0200587     -0.020058
         0.69    -0.0200397     -0.020039
        0.691    -0.0200211    -0.0200204
        0.692    -0.0200027    -0.0200021
        0.693    -0.0199845    -0.0199839
        0.694    -0.0199664    -0.0199657
        0.695    -0.0199483    -0.0199477
        0.696    -0.0199303    -0.0199297
        0.697    -0.0199126    -0.0199119
        0.698    -0.0198949    -0.0198942
        0.699    -0.0198772    -0.0198766
          0.7    -0.0198598    -0.0198591
        0.701    -0.0198424    -0.0198418
        0.702    -0.0198251    -0.0198244
        0.703    -0.0198078    -0.0198072
        0.704    -0.0197907    -0.0197901
        0.705    -0.0197737     -0.019773
        0.706    -0.0197568    -0.0197561
        0.707    -0.0197399    -0.0197393
        0.708    -0.0197231    -0.0197225
        0.709    -0.0197058    -0.0197051
         0.71    -0.0196897    -0.0196891
        0.711    -0.0196739    -0.0196733