# Probe 0 (2 -0.5 0)
# Probe 1 (2 0.5 0)
#       Probe             0             1
#        Time
        0.001             (0.953023 0.0316333 -4.85611e-18)             (0.953022 -0.0316463 -4.16093e-18)
        0.002             (0.956114 0.0287957 2.92884e-19)             (0.956113 -0.0288104 2.50851e-19)
        0.003             (0.955533 0.0292855 -2.05264e-20)             (0.955533 -0.0292947 -1.76573e-20)
        0.004             (0.95517 0.0295626 -1.25401e-20)             (0.955169 -0.0295684 -1.07601e-20)
        0.005             (0.954812 0.0298421 -1.18749e-20)             (0.954811 -0.0298455 -1.01541e-20)
        0.006             (0.954462 0.0301121 -1.26876e-20)             (0.954461 -0.0301139 -1.08331e-20)
        0.007             (0.954119 0.030374 -1.35219e-20)             (0.954118 -0.0303747 -1.15339e-20)
        0.008             (0.953783 0.0306281 -1.43739e-20)             (0.953782 -0.0306281 -1.22594e-20)
        0.009             (0.953453 0.030875 -1.50996e-20)             (0.953453 -0.0308745 -1.28798e-20)
         0.01             (0.95313 0.0311149 -1.56881e-20)             (0.95313 -0.0311141 -1.33854e-20)
        0.011             (0.952814 0.0313483 -1.61475e-20)             (0.952814 -0.0313473 -1.37816e-20)
        0.012             (0.952504 0.0315755 -1.64962e-20)             (0.952504 -0.0315744 -1.40838e-20)
        0.013             (0.952201 0.0317969 -1.67525e-20)             (0.9522 -0.0317957 -1.4307e-20)
        0.014             (0.951903 0.0320128 -1.6932e-20)             (0.951903 -0.0320116 -1.44644e-20)
        0.015             (0.951611 0.0322234 -1.70477e-20)             (0.951611 -0.0322222 -1.45671e-20)
        0.016             (0.951325 0.0324292 -1.71103e-20)             (0.951325 -0.032428 -1.46241e-20)
        0.017             (0.951045 0.0326302 -1.71286e-20)             (0.951044 -0.032629 -1.46431e-20)
        0.018             (0.950769 0.0328268 -1.711e-20)             (0.950769 -0.0328256 -1.46301e-20)
        0.019             (0.950499 0.0330192 -1.7061e-20)             (0.950498 -0.0330181 -1.45909e-20)
         0.02             (0.950233 0.0332076 -1.69864e-20)             (0.950233 -0.0332065 -1.45295e-20)
        0.021             (0.949973 0.0333921 -1.68899e-20)             (0.949972 -0.0333911 -1.44491e-20)
        0.022             (0.949716 0.0335731 -1.6776e-20)             (0.949716 -0.0335721 -1.43539e-20)
        0.023             (0.949464 0.0337506 -1.66475e-20)             (0.949464 -0.0337496 -1.42457e-20)
        0.024             (0.949217 0.0339248 -1.6507e-20)             (0.949216 -0.0339239 -1.41272e-20)
        0.025             (0.948973 0.0340959 -1.63569e-20)             (0.948972 -0.034095 -1.40003e-20)
        0.026             (0.948733 0.0342641 -1.61988e-20)             (0.948733 -0.0342632 -1.38665e-20)
        0.027             (0.948497 0.0344294 -1.60346e-20)             (0.948496 -0.0344286 -1.37273e-20)
        0.028             (0.948264 0.034592 -1.58658e-20)             (0.948264 -0.0345912 -1.3584e-20)
        0.029             (0.948035 0.034752 -1.56931e-20)             (0.948035 -0.0347513 -1.34373e-20)
         0.03             (0.947809 0.0349095 -1.5518e-20)             (0.947809 -0.0349089 -1.32884e-20)
        0.031             (0.947587 0.0350647 -1.53416e-20)             (0.947586 -0.0350641 -1.31383e-20)
        0.032             (0.947367 0.0352177 -1.51643e-20)             (0.947367 -0.0352171 -1.29874e-20)
        0.033             (0.94715 0.0353685 -1.49868e-20)             (0.94715 -0.0353679 -1.28362e-20)
        0.034             (0.946937 0.0355172 -1.48098e-20)             (0.946936 -0.0355167 -1.26854e-20)
        0.035             (0.946726 0.035664 -1.46336e-20)             (0.946725 -0.0356635 -1.25352e-20)
        0.036             (0.946517 0.0358089 -1.44588e-20)             (0.946517 -0.0358085 -1.23861e-20)
        0.037             (0.946311 0.035952 -1.42857e-20)             (0.946311 -0.0359516 -1.22385e-20)
        0.038             (0.946108 0.0360934 -1.41143e-20)             (0.946107 -0.036093 -1.20923e-20)
        0.039             (0.945907 0.0362331 -1.39451e-20)             (0.945906 -0.0362328 -1.19479e-20)
         0.04             (0.945708 0.0363713 -1.37783e-20)             (0.945708 -0.036371 -1.18055e-20)
        0.041             (0.945511 0.0365079 -1.3614e-20)             (0.945511 -0.0365076 -1.16652e-20)
        0.042             (0.945316 0.0366431 -1.34524e-20)             (0.945316 -0.0366428 -1.15272e-20)
        0.043             (0.945124 0.0367768 -1.32932e-20)             (0.945124 -0.0367766 -1.13913e-20)
        0.044             (0.944933 0.0369092 -1.31371e-20)             (0.944933 -0.0369091 -1.12578e-20)
        0.045             (0.944744 0.0370404 -1.2984e-20)             (0.944744 -0.0370402 -1.1127e-20)
        0.046             (0.944558 0.0371703 -1.28334e-20)             (0.944557 -0.0371701 -1.09984e-20)
        0.047             (0.944372 0.037299 -1.26855e-20)             (0.944372 -0.0372989 -1.0872e-20)
        0.048             (0.944189 0.0374265 -1.25408e-20)             (0.944189 -0.0374264 -1.07483e-20)
        0.049             (0.944007 0.0375529 -1.23989e-20)             (0.944007 -0.0375529 -1.0627e-20)
         0.05             (0.943827 0.0376783 -1.226e-20)             (0.943827 -0.0376783 -1.05082e-20)
        0.051             (0.943648 0.0378027 -1.21239e-20)             (0.943648 -0.0378027 -1.03918e-20)
        0.052             (0.943471 0.037926 -1.19906e-20)             (0.943471 -0.037926 -1.02779e-20)
        0.053             (0.943295 0.0380484 -1.186e-20)             (0.943295 -0.0380485 -1.01662e-20)
        0.054             (0.94312 0.0381699 -1.17319e-20)             (0.94312 -0.03817 -1.00566e-20)
        0.055             (0.942947 0.0382905 -1.16065e-20)             (0.942947 -0.0382906 -9.94928e-21)
        0.056             (0.942775 0.0384103 -1.1484e-20)             (0.942775 -0.0384104 -9.84448e-21)
        0.057             (0.942605 0.0385292 -1.1364e-20)             (0.942605 -0.0385293 -9.74179e-21)
        0.058             (0.942435 0.0386473 -1.12465e-20)             (0.942435 -0.0386475 -9.64127e-21)
        0.059             (0.942267 0.0387647 -1.11314e-20)             (0.942267 -0.0387649 -9.54278e-21)
         0.06             (0.9421 0.0388813 -1.10189e-20)             (0.9421 -0.0388815 -9.44645e-21)
        0.061             (0.941934 0.0389972 -1.09086e-20)             (0.941934 -0.0389974 -9.35207e-21)
        0.062             (0.941769 0.0391124 -1.08007e-20)             (0.941769 -0.0391126 -9.2597e-21)
        0.063             (0.941605 0.0392269 -1.0695e-20)             (0.941605 -0.0392272 -9.16923e-21)
        0.064             (0.941442 0.0393408 -1.05914e-20)             (0.941442 -0.0393411 -9.08055e-21)
        0.065             (0.941281 0.0394541 -1.04901e-20)             (0.941281 -0.0394543 -8.99381e-21)
        0.066             (0.94112 0.0395667 -1.03907e-20)             (0.94112 -0.039567 -8.9087e-21)
        0.067             (0.94096 0.0396787 -1.02933e-20)             (0.94096 -0.039679 -8.8253e-21)
        0.068             (0.940801 0.0397902 -1.01979e-20)             (0.940801 -0.0397905 -8.74367e-21)
        0.069             (0.940642 0.0399011 -1.01046e-20)             (0.940642 -0.0399014 -8.66376e-21)
         0.07             (0.940485 0.0400114 -1.0013e-20)             (0.940485 -0.0400118 -8.58534e-21)
        0.071             (0.940329 0.0401213 -9.92321e-21)             (0.940329 -0.0401216 -8.50845e-21)
        0.072             (0.940173 0.0402306 -9.83557e-21)             (0.940173 -0.040231 -8.4334e-21)
        0.073             (0.940018 0.0403394 -9.7493e-21)             (0.940018 -0.0403398 -8.35952e-21)
        0.074             (0.939864 0.0404478 -9.66467e-21)             (0.939864 -0.0404482 -8.28705e-21)
        0.075             (0.939711 0.0405557 -9.58172e-21)             (0.939711 -0.0405561 -8.21601e-21)
        0.076             (0.939558 0.0406631 -9.50042e-21)             (0.939558 -0.0406635 -8.14638e-21)
        0.077             (0.939406 0.0407701 -9.42065e-21)             (0.939406 -0.0407705 -8.07806e-21)
        0.078             (0.939255 0.0408767 -9.34189e-21)             (0.939255 -0.0408771 -8.01053e-21)
        0.079             (0.939104 0.0409828 -9.26504e-21)             (0.939104 -0.0409832 -7.94472e-21)
         0.08             (0.938955 0.0410885 -9.18954e-21)             (0.938955 -0.041089 -7.88005e-21)
        0.081             (0.938805 0.0411939 -9.11565e-21)             (0.938805 -0.0411943 -7.81676e-21)
        0.082             (0.938657 0.0412988 -9.04302e-21)             (0.938657 -0.0412993 -7.75456e-21)
        0.083             (0.938509 0.0414034 -8.97176e-21)             (0.938509 -0.0414039 -7.69352e-21)
        0.084             (0.938362 0.0415076 -8.90179e-21)             (0.938362 -0.0415081 -7.63359e-21)
        0.085             (0.938215 0.0416115 -8.83303e-21)             (0.938215 -0.0416119 -7.5747e-21)
        0.086             (0.938069 0.041715 -8.7655e-21)             (0.938069 -0.0417155 -7.51685e-21)
        0.087             (0.937923 0.0418182 -8.69901e-21)             (0.937923 -0.0418186 -7.4599e-21)
        0.088             (0.937778 0.041921 -8.63402e-21)             (0.937778 -0.0419215 -7.40424e-21)
        0.089             (0.937634 0.0420235 -8.56999e-21)             (0.937634 -0.042024 -7.34939e-21)
         0.09             (0.93749 0.0421257 -8.50695e-21)             (0.93749 -0.0421262 -7.2954e-21)
        0.091             (0.937346 0.0422276 -8.44505e-21)             (0.937346 -0.0422282 -7.24238e-21)
        0.092             (0.937203 0.0423293 -8.38428e-21)             (0.937203 -0.0423298 -7.19033e-21)
        0.093             (0.937061 0.0424306 -8.32434e-21)             (0.937061 -0.0424311 -7.13899e-21)
        0.094             (0.936919 0.0425316 -8.26543e-21)             (0.936919 -0.0425321 -7.08853e-21)
        0.095             (0.936778 0.0426324 -8.20762e-21)             (0.936778 -0.0426329 -7.03902e-21)
        0.096             (0.936637 0.0427329 -8.15064e-21)             (0.936637 -0.0427334 -6.99022e-21)
        0.097             (0.936496 0.0428331 -8.09456e-21)             (0.936496 -0.0428337 -6.94219e-21)
        0.098             (0.936356 0.0429331 -8.0394e-21)             (0.936356 -0.0429336 -6.89494e-21)
        0.099             (0.936216 0.0430328 -7.98511e-21)             (0.936217 -0.0430334 -6.84844e-21)
          0.1             (0.936077 0.0431323 -7.93178e-21)             (0.936077 -0.0431328 -6.80276e-21)
        0.101             (0.935939 0.0432315 -7.87911e-21)             (0.935939 -0.0432321 -6.75766e-21)
        0.102             (0.9358 0.0433305 -7.82738e-21)             (0.9358 -0.0433311 -6.71336e-21)
        0.103             (0.935662 0.0434293 -7.7764e-21)             (0.935662 -0.0434299 -6.66969e-21)
        0.104             (0.935525 0.0435279 -7.7262e-21)             (0.935525 -0.0435285 -6.6267e-21)
        0.105             (0.935388 0.0436262 -7.67675e-21)             (0.935388 -0.0436268 -6.58436e-21)
        0.106             (0.935251 0.0437243 -7.62813e-21)             (0.935251 -0.0437249 -6.54272e-21)
        0.107             (0.935115 0.0438223 -7.58015e-21)             (0.935115 -0.0438229 -6.50163e-21)
        0.108             (0.934979 0.04392 -7.5328e-21)             (0.934979 -0.0439206 -6.46108e-21)
        0.109             (0.934843 0.0440175 -7.48623e-21)             (0.934843 -0.0440181 -6.4212e-21)
         0.11             (0.934708 0.0441148 -7.44033e-21)             (0.934708 -0.0441155 -6.3819e-21)
        0.111             (0.934573 0.044212 -7.39512e-21)             (0.934573 -0.0442126 -6.34318e-21)
        0.112             (0.934438 0.0443089 -7.35051e-21)             (0.934438 -0.0443096 -6.30499e-21)
        0.113             (0.934304 0.0444057 -7.30653e-21)             (0.934304 -0.0444063 -6.26732e-21)
        0.114             (0.93417 0.0445023 -7.26313e-21)             (0.93417 -0.044503 -6.23016e-21)
        0.115             (0.934037 0.0445987 -7.22021e-21)             (0.934037 -0.0445994 -6.19342e-21)
        0.116             (0.933903 0.044695 -7.17827e-21)             (0.933903 -0.0446957 -6.15751e-21)
        0.117             (0.93377 0.0447911 -7.13677e-21)             (0.93377 -0.0447918 -6.12197e-21)
        0.118             (0.933638 0.044887 -7.0958e-21)             (0.933638 -0.0448877 -6.0869e-21)
        0.119             (0.933505 0.0449828 -7.05524e-21)             (0.933506 -0.0449835 -6.05217e-21)
         0.12             (0.933373 0.0450785 -7.0153e-21)             (0.933374 -0.0450791 -6.01797e-21)
        0.121             (0.933242 0.0451739 -6.97593e-21)             (0.933242 -0.0451746 -5.98426e-21)
        0.122             (0.93311 0.0452693 -6.93702e-21)             (0.93311 -0.04527 -5.95095e-21)
        0.123             (0.932979 0.0453645 -6.89863e-21)             (0.932979 -0.0453652 -5.91808e-21)
        0.124             (0.932848 0.0454595 -6.86061e-21)             (0.932848 -0.0454602 -5.88553e-21)
        0.125             (0.932718 0.0455545 -6.8232e-21)             (0.932718 -0.0455552 -5.85351e-21)
        0.126             (0.932587 0.0456493 -6.78624e-21)             (0.932587 -0.0456499 -5.82186e-21)
        0.127             (0.932457 0.0457439 -6.74975e-21)             (0.932457 -0.0457446 -5.79063e-21)
        0.128             (0.932328 0.0458385 -6.71369e-21)             (0.932328 -0.0458392 -5.75976e-21)
        0.129             (0.932198 0.0459329 -6.67818e-21)             (0.932198 -0.0459336 -5.72936e-21)
         0.13             (0.932069 0.0460272 -6.64304e-21)             (0.932069 -0.0460279 -5.69927e-21)
        0.131             (0.93194 0.0461213 -6.6083e-21)             (0.93194 -0.046122 -5.66954e-21)
        0.132             (0.931811 0.0462154 -6.57402e-21)             (0.931811 -0.0462161 -5.64019e-21)
        0.133             (0.931682 0.0463093 -6.54012e-21)             (0.931682 -0.0463101 -5.61118e-21)
        0.134             (0.931554 0.0464032 -6.50667e-21)             (0.931554 -0.0464039 -5.58254e-21)
        0.135             (0.931426 0.0464969 -6.47362e-21)             (0.931426 -0.0464976 -5.55425e-21)
        0.136             (0.931298 0.0465905 -6.44091e-21)             (0.931298 -0.0465913 -5.52625e-21)
        0.137             (0.93117 0.0466841 -6.40863e-21)             (0.93117 -0.0466848 -5.49862e-21)
        0.138             (0.931043 0.0467775 -6.37679e-21)             (0.931043 -0.0467782 -5.47137e-21)
        0.139             (0.930916 0.0468708 -6.34504e-21)             (0.930916 -0.0468716 -5.4442e-21)
         0.14             (0.930789 0.0469641 -6.31393e-21)             (0.930789 -0.0469648 -5.41756e-21)
        0.141             (0.930662 0.0470572 -6.28305e-21)             (0.930662 -0.047058 -5.39114e-21)
        0.142             (0.930535 0.0471503 -6.25245e-21)             (0.930535 -0.047151 -5.36495e-21)
        0.143             (0.930409 0.0472433 -6.22231e-21)             (0.930409 -0.047244 -5.33914e-21)
        0.144             (0.930283 0.0473362 -6.19234e-21)             (0.930283 -0.0473369 -5.31349e-21)
        0.145             (0.930157 0.047429 -6.16312e-21)             (0.930157 -0.0474297 -5.28848e-21)
        0.146             (0.930031 0.0475217 -6.13393e-21)             (0.930031 -0.0475225 -5.2635e-21)
        0.147             (0.929905 0.0476144 -6.10506e-21)             (0.929905 -0.0476151 -5.23879e-21)
        0.148             (0.92978 0.0477069 -6.07656e-21)             (0.92978 -0.0477077 -5.2144e-21)
        0.149             (0.929654 0.0477994 -6.04829e-21)             (0.929654 -0.0478002 -5.1902e-21)
         0.15             (0.929529 0.0478919 -6.02029e-21)             (0.929529 -0.0478926 -5.16624e-21)
        0.151             (0.929404 0.0479842 -5.99251e-21)             (0.929404 -0.047985 -5.14246e-21)
        0.152             (0.92928 0.0480765 -5.96539e-21)             (0.92928 -0.0480773 -5.11926e-21)
        0.153             (0.929155 0.0481687 -5.93832e-21)             (0.929155 -0.0481695 -5.09608e-21)
        0.154             (0.92903 0.0482609 -5.91147e-21)             (0.929031 -0.0482617 -5.0731e-21)
        0.155             (0.928906 0.048353 -5.8849e-21)             (0.928906 -0.0483538 -5.05037e-21)
        0.156             (0.928782 0.0484451 -5.85864e-21)             (0.928782 -0.0484458 -5.02789e-21)
        0.157             (0.928658 0.048537 -5.83265e-21)             (0.928658 -0.0485378 -5.00565e-21)
        0.158             (0.928534 0.048629 -5.80693e-21)             (0.928534 -0.0486298 -4.98363e-21)
        0.159             (0.928411 0.0487208 -5.78154e-21)             (0.928411 -0.0487216 -4.96191e-21)
         0.16             (0.928287 0.0488127 -5.75607e-21)             (0.928287 -0.0488135 -4.9401e-21)
        0.161             (0.928164 0.0489044 -5.73112e-21)             (0.928164 -0.0489052 -4.91876e-21)
        0.162             (0.928041 0.0489961 -5.7064e-21)             (0.928041 -0.048997 -4.8976e-21)
        0.163             (0.927918 0.0490878 -5.6819e-21)             (0.927918 -0.0490886 -4.87664e-21)
        0.164             (0.927795 0.0491794 -5.65762e-21)             (0.927795 -0.0491803 -4.85586e-21)
        0.165             (0.927672 0.049271 -5.63344e-21)             (0.927672 -0.0492718 -4.83516e-21)
        0.166             (0.927549 0.0493626 -5.60987e-21)             (0.927549 -0.0493634 -4.81499e-21)
        0.167             (0.927427 0.0494541 -5.58639e-21)             (0.927427 -0.0494549 -4.79489e-21)
        0.168             (0.927304 0.0495455 -5.56292e-21)             (0.927304 -0.0495463 -4.77481e-21)
        0.169             (0.927182 0.0496369 -5.53979e-21)             (0.927182 -0.0496378 -4.75501e-21)
         0.17             (0.92706 0.0497283 -5.51688e-21)             (0.92706 -0.0497291 -4.73541e-21)
        0.171             (0.926938 0.0498197 -5.49416e-21)             (0.926938 -0.0498205 -4.71597e-21)
        0.172             (0.926816 0.049911 -5.47167e-21)             (0.926816 -0.0499118 -4.69671e-21)
        0.173             (0.926694 0.0500023 -5.44917e-21)             (0.926694 -0.0500031 -4.67746e-21)
        0.174             (0.926573 0.0500935 -5.42709e-21)             (0.926573 -0.0500943 -4.65857e-21)
        0.175             (0.926451 0.0501847 -5.4052e-21)             (0.926451 -0.0501856 -4.63982e-21)
        0.176             (0.92633 0.0502759 -5.38349e-21)             (0.92633 -0.0502767 -4.62125e-21)
        0.177             (0.926208 0.0503671 -5.36196e-21)             (0.926208 -0.0503679 -4.60282e-21)
        0.178             (0.926087 0.0504582 -5.34048e-21)             (0.926087 -0.050459 -4.58444e-21)
        0.179             (0.925966 0.0505493 -5.31967e-21)             (0.925966 -0.0505502 -4.56663e-21)
         0.18             (0.925845 0.0506404 -5.29875e-21)             (0.925845 -0.0506412 -4.54873e-21)
        0.181             (0.925724 0.0507315 -5.278e-21)             (0.925724 -0.0507323 -4.53097e-21)
        0.182             (0.925603 0.0508225 -5.25747e-21)             (0.925603 -0.0508234 -4.5134e-21)
        0.183             (0.925483 0.0509135 -5.23698e-21)             (0.925483 -0.0509144 -4.49587e-21)
        0.184             (0.925362 0.0510045 -5.21678e-21)             (0.925362 -0.0510054 -4.47858e-21)
        0.185             (0.925241 0.0510955 -5.19676e-21)             (0.925241 -0.0510964 -4.46145e-21)
        0.186             (0.925121 0.0511865 -5.17692e-21)             (0.925121 -0.0511874 -4.44446e-21)
        0.187             (0.925001 0.0512774 -5.15719e-21)             (0.925001 -0.0512783 -4.42758e-21)
        0.188             (0.924881 0.0513684 -5.13763e-21)             (0.924881 -0.0513693 -4.41084e-21)
        0.189             (0.92476 0.0514593 -5.11825e-21)             (0.92476 -0.0514602 -4.39426e-21)
         0.19             (0.92464 0.0515502 -5.09901e-21)             (0.92464 -0.0515511 -4.37779e-21)
        0.191             (0.92452 0.0516412 -5.07994e-21)             (0.92452 -0.051642 -4.36147e-21)
        0.192             (0.9244 0.0517321 -5.06099e-21)             (0.924401 -0.0517329 -4.34526e-21)
        0.193             (0.924281 0.051823 -5.04209e-21)             (0.924281 -0.0518238 -4.32907e-21)
        0.194             (0.924161 0.0519138 -5.02375e-21)             (0.924161 -0.0519147 -4.31338e-21)
        0.195             (0.924041 0.0520047 -5.00525e-21)             (0.924041 -0.0520056 -4.29755e-21)
        0.196             (0.923922 0.0520956 -4.98692e-21)             (0.923922 -0.0520965 -4.28186e-21)
        0.197             (0.923802 0.0521865 -4.96877e-21)             (0.923802 -0.0521874 -4.26632e-21)
        0.198             (0.923683 0.0522773 -4.95074e-21)             (0.923683 -0.0522782 -4.2509e-21)
        0.199             (0.923564 0.0523682 -4.93284e-21)             (0.923564 -0.0523691 -4.23558e-21)
          0.2             (0.923444 0.0524591 -4.9151e-21)             (0.923444 -0.05246 -4.2204e-21)
        0.201             (0.923325 0.05255 -4.89749e-21)             (0.923325 -0.0525509 -4.20533e-21)
        0.202             (0.923206 0.0526408 -4.88001e-21)             (0.923206 -0.0526417 -4.19036e-21)
        0.203             (0.923087 0.0527317 -4.86268e-21)             (0.923087 -0.0527326 -4.17553e-21)
        0.204             (0.922968 0.0528226 -4.84553e-21)             (0.922968 -0.0528235 -4.16086e-21)
        0.205             (0.922849 0.0529135 -4.82842e-21)             (0.922849 -0.0529144 -4.14621e-21)
        0.206             (0.92273 0.0530043 -4.81151e-21)             (0.92273 -0.0530053 -4.13174e-21)
        0.207             (0.922611 0.0530952 -4.79472e-21)             (0.922611 -0.0530962 -4.11737e-21)
        0.208             (0.922493 0.0531861 -4.77791e-21)             (0.922493 -0.0531871 -4.10299e-21)
        0.209             (0.922374 0.053277 -4.76138e-21)             (0.922374 -0.053278 -4.08884e-21)
         0.21             (0.922255 0.053368 -4.74498e-21)             (0.922255 -0.0533689 -4.0748e-21)
        0.211             (0.922137 0.0534589 -4.72869e-21)             (0.922137 -0.0534598 -4.06086e-21)
        0.212             (0.922018 0.0535498 -4.71254e-21)             (0.922018 -0.0535507 -4.04704e-21)
        0.213             (0.9219 0.0536408 -4.69645e-21)             (0.9219 -0.0536417 -4.03327e-21)
        0.214             (0.921782 0.0537317 -4.68047e-21)             (0.921782 -0.0537327 -4.01959e-21)
        0.215             (0.921663 0.0538227 -4.66448e-21)             (0.921663 -0.0538236 -4.00591e-21)
        0.216             (0.921545 0.0539137 -4.64898e-21)             (0.921545 -0.0539146 -3.99264e-21)
        0.217             (0.921427 0.0540047 -4.63334e-21)             (0.921427 -0.0540056 -3.97926e-21)
        0.218             (0.921309 0.0540957 -4.6178e-21)             (0.921309 -0.0540967 -3.96595e-21)
        0.219             (0.921191 0.0541867 -4.60224e-21)             (0.921191 -0.0541877 -3.95263e-21)
         0.22             (0.921073 0.0542778 -4.58724e-21)             (0.921073 -0.0542787 -3.9398e-21)
        0.221             (0.920954 0.0543689 -4.57209e-21)             (0.920954 -0.0543698 -3.92683e-21)
        0.222             (0.920837 0.05446 -4.55704e-21)             (0.920837 -0.0544609 -3.91395e-21)
        0.223             (0.920719 0.0545511 -4.5421e-21)             (0.920719 -0.054552 -3.90116e-21)
        0.224             (0.920601 0.0546422 -4.52725e-21)             (0.920601 -0.0546431 -3.88845e-21)
        0.225             (0.920483 0.0547333 -4.51249e-21)             (0.920483 -0.0547343 -3.87582e-21)
        0.226             (0.920365 0.0548245 -4.49784e-21)             (0.920365 -0.0548255 -3.86328e-21)
        0.227             (0.920247 0.0549157 -4.48329e-21)             (0.920247 -0.0549167 -3.85083e-21)
        0.228             (0.92013 0.0550069 -4.46883e-21)             (0.92013 -0.0550079 -3.83846e-21)
        0.229             (0.920012 0.0550982 -4.45447e-21)             (0.920012 -0.0550991 -3.82616e-21)
         0.23             (0.919894 0.0551894 -4.44024e-21)             (0.919894 -0.0551904 -3.81399e-21)
        0.231             (0.919777 0.0552807 -4.42611e-21)             (0.919777 -0.0552817 -3.80189e-21)
        0.232             (0.919659 0.0553721 -4.41203e-21)             (0.919659 -0.055373 -3.78984e-21)
        0.233             (0.919542 0.0554634 -4.39809e-21)             (0.919542 -0.0554644 -3.77791e-21)
        0.234             (0.919424 0.0555548 -4.38428e-21)             (0.919424 -0.0555558 -3.76609e-21)
        0.235             (0.919307 0.0556462 -4.3704e-21)             (0.919307 -0.0556472 -3.75421e-21)
        0.236             (0.919189 0.0557376 -4.35676e-21)             (0.919189 -0.0557386 -3.74254e-21)
        0.237             (0.919072 0.0558291 -4.34318e-21)             (0.919072 -0.0558301 -3.73091e-21)
        0.238             (0.918954 0.0559206 -4.32968e-21)             (0.918954 -0.0559216 -3.71936e-21)
        0.239             (0.918837 0.0560121 -4.31625e-21)             (0.918837 -0.0560131 -3.70787e-21)
         0.24             (0.91872 0.0561037 -4.30292e-21)             (0.91872 -0.0561046 -3.69645e-21)
        0.241             (0.918602 0.0561952 -4.28967e-21)             (0.918602 -0.0561962 -3.68511e-21)
        0.242             (0.918485 0.0562869 -4.27649e-21)             (0.918485 -0.0562879 -3.67383e-21)
        0.243             (0.918368 0.0563785 -4.2634e-21)             (0.918368 -0.0563795 -3.66263e-21)
        0.244             (0.918251 0.0564702 -4.25026e-21)             (0.918251 -0.0564712 -3.65139e-21)
        0.245             (0.918134 0.0565619 -4.23761e-21)             (0.918134 -0.0565629 -3.64056e-21)
        0.246             (0.918016 0.0566537 -4.2248e-21)             (0.918016 -0.0566547 -3.6296e-21)
        0.247             (0.917899 0.0567455 -4.21205e-21)             (0.917899 -0.0567465 -3.61868e-21)
        0.248             (0.917782 0.0568373 -4.19939e-21)             (0.917782 -0.0568383 -3.60784e-21)
        0.249             (0.917665 0.0569292 -4.1868e-21)             (0.917665 -0.0569302 -3.59707e-21)
         0.25             (0.917548 0.0570211 -4.17429e-21)             (0.917548 -0.0570221 -3.58636e-21)
        0.251             (0.917431 0.0571131 -4.16187e-21)             (0.917431 -0.0571141 -3.57573e-21)
        0.252             (0.917314 0.0572051 -4.14953e-21)             (0.917314 -0.0572061 -3.56517e-21)
        0.253             (0.917197 0.0572971 -4.13727e-21)             (0.917197 -0.0572981 -3.55467e-21)
        0.254             (0.91708 0.0573892 -4.12507e-21)             (0.91708 -0.0573902 -3.54423e-21)
        0.255             (0.916963 0.0574813 -4.113e-21)             (0.916963 -0.0574823 -3.5339e-21)
        0.256             (0.916846 0.0575734 -4.10078e-21)             (0.916846 -0.0575745 -3.52344e-21)
        0.257             (0.916729 0.0576656 -4.08896e-21)             (0.916729 -0.0576667 -3.51333e-21)
        0.258             (0.916612 0.0577579 -4.07706e-21)             (0.916612 -0.0577589 -3.50314e-21)
        0.259             (0.916495 0.0578502 -4.06523e-21)             (0.916495 -0.0578512 -3.49301e-21)
         0.26             (0.916378 0.0579425 -4.05348e-21)             (0.916378 -0.0579435 -3.48295e-21)
        0.261             (0.916262 0.0580349 -4.04179e-21)             (0.916262 -0.0580359 -3.47296e-21)
        0.262             (0.916145 0.0581273 -4.03022e-21)             (0.916145 -0.0581283 -3.46305e-21)
        0.263             (0.916028 0.0582198 -4.01864e-21)             (0.916028 -0.0582208 -3.45314e-21)
        0.264             (0.915911 0.0583123 -4.00721e-21)             (0.915911 -0.0583133 -3.44336e-21)
        0.265             (0.915794 0.0584048 -3.99587e-21)             (0.915794 -0.0584059 -3.43365e-21)
        0.266             (0.915677 0.0584975 -3.98438e-21)             (0.915677 -0.0584985 -3.42382e-21)
        0.267             (0.915561 0.0585901 -3.97312e-21)             (0.915561 -0.0585912 -3.41417e-21)
        0.268             (0.915444 0.0586828 -3.96177e-21)             (0.915444 -0.0586839 -3.40446e-21)
        0.269             (0.915327 0.0587756 -3.95089e-21)             (0.915327 -0.0587766 -3.39515e-21)
         0.27             (0.91521 0.0588684 -3.93982e-21)             (0.91521 -0.0588694 -3.38568e-21)
        0.271             (0.915093 0.0589612 -3.92881e-21)             (0.915093 -0.0589623 -3.37625e-21)
        0.272             (0.914977 0.0590541 -3.91787e-21)             (0.914977 -0.0590552 -3.36689e-21)
        0.273             (0.91486 0.0591471 -3.90698e-21)             (0.91486 -0.0591482 -3.35757e-21)
        0.274             (0.914743 0.0592401 -3.89615e-21)             (0.914743 -0.0592412 -3.3483e-21)
        0.275             (0.914626 0.0593332 -3.88528e-21)             (0.914626 -0.0593342 -3.33899e-21)
        0.276             (0.91451 0.0594263 -3.87453e-21)             (0.91451 -0.0594273 -3.32979e-21)
        0.277             (0.914393 0.0595194 -3.86422e-21)             (0.914393 -0.0595205 -3.32097e-21)
        0.278             (0.914276 0.0596127 -3.85363e-21)             (0.914276 -0.0596137 -3.31191e-21)
        0.279             (0.914159 0.0597059 -3.84311e-21)             (0.914159 -0.059707 -3.3029e-21)
         0.28             (0.914043 0.0597993 -3.83264e-21)             (0.914042 -0.0598004 -3.29394e-21)
        0.281             (0.913926 0.0598927 -3.82225e-21)             (0.913926 -0.0598937 -3.28505e-21)