/*--------------------------------*- C++ -*----------------------------------*\
  =========                 |
  \\      /  F ield         | OpenFOAM: The Open Source CFD Toolbox
   \\    /   O peration     | Website:  https://openfoam.org
    \\  /    A nd           | Version:  7
     \\/     M anipulation  |
\*---------------------------------------------------------------------------*/
FoamFile
{
    version     2.0;
    format      ascii;
    class       volScalarField;
    location    "10";
    object      p;
}
// * * * * * * * * * * * * * * * * * * * * * * * * * * * * * * * * * * * * * //

dimensions      [0 2 -2 0 0 0 0];

internalField   nonuniform List<scalar> 
42000
(
-0.412283
-0.411884
-0.401962
-0.387831
-0.371437
-0.352147
-0.332327
-0.311219
-0.290217
-0.26897
-0.248309
-0.227903
-0.20867
-0.189571
-0.172783
-0.154741
-0.141932
-0.123442
-0.11724
-0.0962408
-0.412561
-0.412051
-0.402117
-0.387941
-0.371536
-0.352227
-0.332399
-0.311284
-0.290278
-0.269027
-0.248365
-0.227957
-0.208723
-0.189622
-0.172839
-0.154786
-0.142003
-0.123453
-0.117386
-0.0960838
-0.413116
-0.412383
-0.402427
-0.388159
-0.371733
-0.352386
-0.332545
-0.311412
-0.290399
-0.269141
-0.248475
-0.228063
-0.20883
-0.189724
-0.17295
-0.154875
-0.142145
-0.123477
-0.117674
-0.0957741
-0.413947
-0.412881
-0.402892
-0.388486
-0.372029
-0.352624
-0.332762
-0.311605
-0.29058
-0.269312
-0.24864
-0.228223
-0.20899
-0.189877
-0.173117
-0.155009
-0.142356
-0.123514
-0.1181
-0.0953198
-0.415052
-0.413542
-0.403509
-0.38892
-0.372422
-0.352939
-0.333051
-0.31186
-0.290821
-0.269537
-0.248859
-0.228434
-0.209201
-0.190078
-0.173337
-0.155187
-0.142634
-0.123566
-0.118656
-0.0947329
-0.416427
-0.414366
-0.404277
-0.38946
-0.37291
-0.353332
-0.33341
-0.312177
-0.291119
-0.269817
-0.24913
-0.228696
-0.209463
-0.190329
-0.173609
-0.155408
-0.142975
-0.123633
-0.119331
-0.0940289
-0.418071
-0.415351
-0.405195
-0.390106
-0.373494
-0.3538
-0.333837
-0.312555
-0.291474
-0.27015
-0.249452
-0.229007
-0.209774
-0.190626
-0.173931
-0.155671
-0.143376
-0.123719
-0.120112
-0.0932264
-0.419978
-0.416493
-0.40626
-0.390854
-0.374169
-0.354341
-0.334332
-0.312991
-0.291884
-0.270534
-0.249823
-0.229366
-0.210131
-0.190968
-0.1743
-0.155975
-0.143832
-0.123825
-0.120987
-0.0923465
-0.422144
-0.417791
-0.407469
-0.391703
-0.374935
-0.354955
-0.334891
-0.313485
-0.292347
-0.270968
-0.250242
-0.22977
-0.210534
-0.191354
-0.174714
-0.156317
-0.144338
-0.123954
-0.121939
-0.0914126
-0.424565
-0.419241
-0.408819
-0.39265
-0.37579
-0.355638
-0.335514
-0.314033
-0.292861
-0.271449
-0.250705
-0.230217
-0.210978
-0.19178
-0.17517
-0.156698
-0.144888
-0.124108
-0.122951
-0.0904494
-0.427233
-0.420839
-0.410307
-0.393693
-0.37673
-0.356389
-0.336198
-0.314634
-0.293424
-0.271974
-0.251212
-0.230704
-0.211462
-0.192244
-0.175663
-0.157114
-0.145477
-0.124289
-0.124006
-0.0894825
-0.430143
-0.422583
-0.41193
-0.39483
-0.377753
-0.357205
-0.336939
-0.315285
-0.294033
-0.272542
-0.251758
-0.23123
-0.211983
-0.192743
-0.176191
-0.157562
-0.146097
-0.124501
-0.125086
-0.0885378
-0.433288
-0.424467
-0.413683
-0.396056
-0.378856
-0.358083
-0.337737
-0.315984
-0.294685
-0.27315
-0.252341
-0.23179
-0.212536
-0.193274
-0.176748
-0.158041
-0.146741
-0.124743
-0.126174
-0.0876403
-0.436664
-0.426486
-0.415562
-0.397369
-0.380037
-0.359021
-0.338588
-0.316728
-0.295378
-0.273794
-0.252958
-0.232382
-0.213119
-0.193833
-0.17733
-0.158546
-0.147402
-0.125018
-0.127251
-0.0868142
-0.440268
-0.42863
-0.417562
-0.398766
-0.381291
-0.360016
-0.339488
-0.317514
-0.29611
-0.274472
-0.253606
-0.233002
-0.213727
-0.194416
-0.177932
-0.159075
-0.148073
-0.125326
-0.128303
-0.0860817
-0.444063
-0.430918
-0.41968
-0.400243
-0.382616
-0.361065
-0.340436
-0.31834
-0.296875
-0.27518
-0.254281
-0.233646
-0.214356
-0.19502
-0.178549
-0.159622
-0.148745
-0.125666
-0.129312
-0.0854627
-0.448066
-0.433323
-0.42191
-0.401796
-0.384007
-0.362164
-0.341428
-0.319201
-0.297673
-0.275915
-0.254979
-0.234311
-0.215001
-0.195638
-0.179175
-0.160184
-0.149412
-0.126039
-0.130264
-0.084974
-0.452267
-0.435842
-0.424247
-0.403422
-0.385462
-0.363312
-0.342462
-0.320096
-0.298499
-0.276674
-0.255697
-0.234992
-0.215659
-0.196268
-0.179805
-0.160756
-0.150065
-0.12644
-0.131146
-0.084629
-0.456654
-0.438473
-0.426686
-0.405117
-0.386977
-0.364504
-0.343533
-0.321021
-0.299349
-0.277452
-0.25643
-0.235684
-0.216323
-0.196902
-0.180431
-0.161332
-0.150696
-0.126868
-0.131946
-0.0844377
-0.461216
-0.441209
-0.429222
-0.406877
-0.388548
-0.365737
-0.344638
-0.321972
-0.300221
-0.278247
-0.257174
-0.236384
-0.21699
-0.197536
-0.181048
-0.161906
-0.151298
-0.127319
-0.132655
-0.0844057
-0.465943
-0.444044
-0.431848
-0.408698
-0.390172
-0.367008
-0.345775
-0.322947
-0.301111
-0.279054
-0.257925
-0.237085
-0.217652
-0.198164
-0.181649
-0.162472
-0.151864
-0.127788
-0.133265
-0.0845349
-0.470826
-0.446973
-0.434561
-0.410576
-0.391844
-0.368314
-0.34694
-0.323941
-0.302015
-0.279869
-0.258679
-0.237784
-0.218305
-0.19878
-0.182228
-0.163024
-0.152386
-0.128269
-0.133767
-0.0848231
-0.475854
-0.44999
-0.437353
-0.412507
-0.393561
-0.369652
-0.34813
-0.324953
-0.30293
-0.280687
-0.259429
-0.238474
-0.218942
-0.199376
-0.182776
-0.163554
-0.152857
-0.128756
-0.134158
-0.0852642
-0.481017
-0.453088
-0.440219
-0.414486
-0.39532
-0.371018
-0.349342
-0.325977
-0.303851
-0.281506
-0.260173
-0.23915
-0.219557
-0.199948
-0.183289
-0.164056
-0.153272
-0.129242
-0.134434
-0.0858486
-0.486303
-0.456261
-0.443153
-0.416511
-0.397116
-0.372409
-0.350571
-0.327011
-0.304775
-0.282319
-0.260903
-0.239807
-0.220145
-0.200487
-0.183757
-0.164522
-0.153622
-0.12972
-0.134593
-0.0865637
-0.491704
-0.459502
-0.44615
-0.418576
-0.398945
-0.373822
-0.351815
-0.328051
-0.305696
-0.283122
-0.261616
-0.240438
-0.220697
-0.200986
-0.184175
-0.164945
-0.153903
-0.130182
-0.134635
-0.087394
-0.497206
-0.462805
-0.449203
-0.420678
-0.400804
-0.375253
-0.35307
-0.329094
-0.306613
-0.283911
-0.262305
-0.241037
-0.221208
-0.201439
-0.184535
-0.165317
-0.154109
-0.130619
-0.13456
-0.0883221
-0.5028
-0.466163
-0.452306
-0.422812
-0.402689
-0.376699
-0.354333
-0.330134
-0.307518
-0.28468
-0.262965
-0.241597
-0.221671
-0.201838
-0.18483
-0.165631
-0.154234
-0.131025
-0.13437
-0.0893289
-0.508474
-0.46957
-0.455454
-0.424974
-0.404595
-0.378156
-0.355599
-0.33117
-0.308409
-0.285424
-0.263589
-0.242113
-0.222078
-0.202176
-0.185054
-0.16588
-0.154275
-0.131391
-0.134068
-0.0903943
-0.514217
-0.473018
-0.458639
-0.42716
-0.40652
-0.379622
-0.356866
-0.332195
-0.30928
-0.286138
-0.264171
-0.242576
-0.222423
-0.202446
-0.185199
-0.166057
-0.154226
-0.13171
-0.133655
-0.0914979
-0.520018
-0.4765
-0.461856
-0.429365
-0.408458
-0.381092
-0.358128
-0.333206
-0.310127
-0.286816
-0.264706
-0.242981
-0.222699
-0.202639
-0.18526
-0.166154
-0.154084
-0.131973
-0.133135
-0.0926194
-0.525864
-0.48001
-0.465098
-0.431585
-0.410405
-0.382562
-0.359383
-0.334199
-0.310943
-0.287452
-0.265187
-0.24332
-0.222898
-0.20275
-0.18523
-0.166165
-0.153845
-0.132175
-0.132511
-0.093739
-0.531744
-0.483541
-0.468358
-0.433816
-0.412358
-0.384029
-0.360625
-0.335168
-0.311724
-0.288039
-0.265606
-0.243587
-0.223013
-0.20277
-0.185103
-0.166085
-0.153507
-0.132308
-0.131786
-0.0948381
-0.537648
-0.487084
-0.471632
-0.436053
-0.414312
-0.385489
-0.361851
-0.33611
-0.312465
-0.288572
-0.265957
-0.243773
-0.223038
-0.202694
-0.184874
-0.165907
-0.153066
-0.132366
-0.13096
-0.0959008
-0.543562
-0.490633
-0.47491
-0.438291
-0.416263
-0.386937
-0.363055
-0.337017
-0.313158
-0.289043
-0.266233
-0.243873
-0.222966
-0.202515
-0.184538
-0.165626
-0.152521
-0.132345
-0.130036
-0.0969166
-0.549475
-0.494181
-0.478188
-0.440525
-0.418205
-0.38837
-0.364233
-0.337886
-0.313797
-0.289447
-0.266428
-0.243878
-0.22279
-0.202227
-0.18409
-0.165237
-0.151869
-0.132239
-0.129013
-0.0978776
-0.555375
-0.497719
-0.481457
-0.44275
-0.420133
-0.389781
-0.365379
-0.338709
-0.314377
-0.289776
-0.266533
-0.243782
-0.222504
-0.201823
-0.183526
-0.164735
-0.151111
-0.132044
-0.127886
-0.0987573
-0.561249
-0.50124
-0.484712
-0.444961
-0.422044
-0.391167
-0.366487
-0.339482
-0.314891
-0.290024
-0.266542
-0.243578
-0.222102
-0.201299
-0.182842
-0.164116
-0.150244
-0.131756
-0.126641
-0.0995161
-0.567086
-0.504735
-0.487943
-0.447153
-0.42393
-0.392521
-0.367553
-0.340198
-0.315331
-0.290181
-0.266447
-0.243259
-0.221577
-0.200649
-0.182034
-0.163377
-0.149269
-0.131373
-0.125258
-0.100306
-0.572873
-0.508198
-0.491146
-0.449321
-0.425787
-0.393839
-0.36857
-0.340849
-0.315691
-0.290243
-0.266242
-0.242819
-0.220925
-0.199869
-0.1811
-0.162513
-0.148188
-0.130886
-0.123761
-0.101807
-0.578601
-0.511623
-0.494314
-0.451459
-0.42761
-0.395116
-0.369531
-0.34143
-0.315963
-0.290201
-0.265919
-0.242251
-0.220141
-0.198954
-0.180038
-0.161521
-0.146999
-0.130276
-0.12225
-0.1045
-0.58425
-0.514995
-0.497433
-0.453558
-0.429389
-0.396343
-0.370428
-0.341932
-0.316139
-0.290047
-0.265472
-0.24155
-0.219218
-0.197902
-0.178844
-0.160399
-0.145705
-0.12953
-0.1207
-0.1056
-0.58981
-0.518308
-0.500498
-0.455613
-0.43112
-0.397513
-0.371256
-0.342348
-0.316211
-0.289774
-0.264893
-0.240709
-0.218155
-0.196708
-0.177517
-0.159146
-0.144305
-0.128638
-0.119144
-0.105925
-0.595267
-0.521553
-0.503502
-0.457618
-0.432794
-0.398621
-0.372005
-0.34267
-0.316172
-0.289374
-0.264177
-0.239724
-0.216945
-0.19537
-0.176056
-0.157758
-0.142798
-0.127597
-0.117581
-0.105894
-0.600609
-0.524721
-0.506435
-0.459564
-0.434405
-0.399659
-0.372669
-0.34289
-0.316014
-0.288841
-0.263316
-0.238589
-0.215586
-0.193886
-0.174459
-0.156235
-0.141183
-0.126409
-0.115995
-0.105562
-0.605822
-0.527803
-0.509288
-0.461446
-0.435946
-0.400619
-0.373238
-0.343
-0.315728
-0.288167
-0.262304
-0.237299
-0.214075
-0.192253
-0.172725
-0.154578
-0.13946
-0.125074
-0.114374
-0.104952
-0.610891
-0.53079
-0.512052
-0.463254
-0.437407
-0.401492
-0.373705
-0.34299
-0.315306
-0.287344
-0.261137
-0.235851
-0.212409
-0.190471
-0.170854
-0.152784
-0.137628
-0.123596
-0.112706
-0.104095
-0.615803
-0.533671
-0.514717
-0.464981
-0.438779
-0.402271
-0.37406
-0.342853
-0.31474
-0.286366
-0.259808
-0.234241
-0.210586
-0.188539
-0.168846
-0.150855
-0.135685
-0.121976
-0.110981
-0.103021
-0.620543
-0.536437
-0.517274
-0.466618
-0.440055
-0.402945
-0.374293
-0.342579
-0.314023
-0.285226
-0.258313
-0.232465
-0.208604
-0.186455
-0.166699
-0.148792
-0.13363
-0.120216
-0.109187
-0.101751
-0.625096
-0.539076
-0.519711
-0.468155
-0.441224
-0.403506
-0.374396
-0.342159
-0.313145
-0.283917
-0.256646
-0.230521
-0.206461
-0.184219
-0.164415
-0.146593
-0.131462
-0.11832
-0.107316
-0.100302
-0.629448
-0.541578
-0.522019
-0.469584
-0.442276
-0.403943
-0.374359
-0.341585
-0.312099
-0.282434
-0.254803
-0.228406
-0.204157
-0.181832
-0.161994
-0.144261
-0.12918
-0.11629
-0.105359
-0.0986889
-0.633582
-0.543932
-0.524186
-0.470894
-0.443201
-0.404247
-0.374171
-0.340847
-0.310878
-0.28077
-0.25278
-0.226117
-0.201691
-0.179294
-0.159435
-0.141796
-0.126783
-0.114127
-0.103309
-0.0969201
-0.637485
-0.546126
-0.526201
-0.472075
-0.443989
-0.404407
-0.373823
-0.339936
-0.309473
-0.27892
-0.250575
-0.223653
-0.199062
-0.176604
-0.15674
-0.1392
-0.124271
-0.111833
-0.101159
-0.0950038
-0.641139
-0.54815
-0.528052
-0.473116
-0.444628
-0.404413
-0.373303
-0.338843
-0.307878
-0.276878
-0.248183
-0.221014
-0.196271
-0.173765
-0.153909
-0.136473
-0.121642
-0.109411
-0.0989046
-0.0929457
-0.644528
-0.54999
-0.529727
-0.474007
-0.445107
-0.404253
-0.372603
-0.337559
-0.306086
-0.27464
-0.245602
-0.218197
-0.193317
-0.170777
-0.150943
-0.133616
-0.118896
-0.106861
-0.0965406
-0.0907499
-0.647638
-0.551635
-0.531214
-0.474735
-0.445414
-0.403917
-0.371711
-0.336076
-0.30409
-0.272202
-0.24283
-0.215203
-0.190202
-0.16764
-0.147844
-0.130631
-0.116033
-0.104186
-0.0940635
-0.0884196
-0.65045
-0.553073
-0.532499
-0.47529
-0.445537
-0.403392
-0.370618
-0.334385
-0.301883
-0.269559
-0.239865
-0.212031
-0.186926
-0.164358
-0.144613
-0.12752
-0.113053
-0.101387
-0.0914703
-0.0859568
-0.65295
-0.55429
-0.533571
-0.475658
-0.445464
-0.402669
-0.369312
-0.332478
-0.29946
-0.266709
-0.236706
-0.208681
-0.18349
-0.16093
-0.14125
-0.124283
-0.109956
-0.0984645
-0.0887585
-0.0833631
-0.655118
-0.555274
-0.534415
-0.475828
-0.445182
-0.401735
-0.367785
-0.330347
-0.296815
-0.263647
-0.233351
-0.205154
-0.179895
-0.157359
-0.137757
-0.120923
-0.106743
-0.0954205
-0.0859265
-0.0806393
-0.65694
-0.556012
-0.535017
-0.475788
-0.444679
-0.400578
-0.366026
-0.327984
-0.293944
-0.260372
-0.2298
-0.201451
-0.176144
-0.153646
-0.134136
-0.11744
-0.103414
-0.0922559
-0.0829729
-0.0777863
-0.658398
-0.55649
-0.535365
-0.475523
-0.443943
-0.399189
-0.364025
-0.325383
-0.290841
-0.256881
-0.226053
-0.197572
-0.172236
-0.149794
-0.130388
-0.113836
-0.0999692
-0.0889722
-0.0798969
-0.0748046
-0.659475
-0.556694
-0.535444
-0.475021
-0.442959
-0.397554
-0.361774
-0.322536
-0.287502
-0.253173
-0.222109
-0.193519
-0.168175
-0.145804
-0.126516
-0.110114
-0.0964104
-0.0855706
-0.0766983
-0.0716945
-0.660153
-0.556611
-0.535241
-0.474269
-0.441717
-0.395664
-0.359262
-0.319437
-0.283925
-0.249245
-0.21797
-0.189294
-0.163963
-0.141679
-0.12252
-0.106274
-0.0927386
-0.0820527
-0.0733771
-0.0684565
-0.660416
-0.556228
-0.534739
-0.473254
-0.440202
-0.393506
-0.356482
-0.316081
-0.280104
-0.245099
-0.213635
-0.184898
-0.1596
-0.13742
-0.118404
-0.10232
-0.0889552
-0.0784199
-0.0699341
-0.0650913
-0.660246
-0.55553
-0.533926
-0.471962
-0.438403
-0.391071
-0.353425
-0.312461
-0.276039
-0.240732
-0.209107
-0.180333
-0.15509
-0.13303
-0.114168
-0.098252
-0.0850617
-0.074674
-0.0663703
-0.0615993
-0.659628
-0.554503
-0.532787
-0.47038
-0.436306
-0.388349
-0.350083
-0.308573
-0.271727
-0.236145
-0.204386
-0.175601
-0.150436
-0.128511
-0.109816
-0.0940733
-0.08106
-0.0708169
-0.0626871
-0.0579816
-0.658543
-0.553133
-0.531308
-0.468495
-0.4339
-0.385328
-0.346448
-0.304413
-0.267165
-0.231338
-0.199473
-0.170704
-0.145638
-0.123866
-0.105348
-0.0897858
-0.0769522
-0.0668507
-0.0588865
-0.0542391
-0.656975
-0.551407
-0.529473
-0.466293
-0.431172
-0.381999
-0.342515
-0.299977
-0.262353
-0.226312
-0.194372
-0.165646
-0.140701
-0.119098
-0.100769
-0.085392
-0.0727405
-0.0627776
-0.0549708
-0.0503735
-0.654908
-0.549311
-0.527269
-0.463761
-0.42811
-0.378354
-0.338277
-0.295261
-0.25729
-0.221068
-0.189084
-0.160428
-0.135626
-0.114208
-0.0960803
-0.0808945
-0.0684275
-0.0586002
-0.0509429
-0.0463864
-0.652326
-0.546831
-0.524683
-0.460887
-0.424704
-0.374383
-0.333727
-0.290262
-0.251976
-0.215608
-0.183611
-0.155054
-0.130417
-0.109201
-0.0912844
-0.0762959
-0.0640157
-0.0543212
-0.0468061
-0.0422801
-0.649213
-0.543952
-0.521698
-0.457658
-0.420942
-0.370079
-0.328862
-0.28498
-0.246411
-0.209933
-0.177957
-0.149526
-0.125077
-0.104078
-0.0863843
-0.0715989
-0.0595082
-0.0499436
-0.042564
-0.0380571
-0.645554
-0.540663
-0.518303
-0.454062
-0.416815
-0.365433
-0.323675
-0.279411
-0.240595
-0.204045
-0.172123
-0.143847
-0.119607
-0.0988421
-0.0813827
-0.0668066
-0.0549081
-0.0454706
-0.0382207
-0.0337203
-0.641334
-0.536949
-0.514484
-0.450087
-0.412311
-0.36044
-0.318165
-0.273556
-0.234531
-0.197947
-0.166113
-0.138021
-0.114013
-0.093497
-0.0762828
-0.0619221
-0.0502186
-0.0409058
-0.0337807
-0.0292732
-0.636538
-0.532799
-0.510228
-0.445721
-0.407421
-0.355092
-0.312326
-0.267413
-0.228218
-0.191642
-0.159931
-0.13205
-0.108296
-0.0880457
-0.0710875
-0.0569485
-0.0454433
-0.0362527
-0.0292488
-0.0247195
-0.631154
-0.528198
-0.505522
-0.440953
-0.402138
-0.349384
-0.306158
-0.260983
-0.22166
-0.185132
-0.153579
-0.125939
-0.10246
-0.0824912
-0.0658
-0.0518892
-0.0405858
-0.0315154
-0.0246303
-0.0200636
-0.625166
-0.523137
-0.500354
-0.435774
-0.396452
-0.343311
-0.299658
-0.254267
-0.214859
-0.178421
-0.14706
-0.11969
-0.0965085
-0.0768368
-0.0604238
-0.0467477
-0.0356499
-0.0266981
-0.0199307
-0.0153102
-0.618564
-0.517602
-0.494714
-0.430173
-0.390357
-0.336868
-0.292824
-0.247265
-0.207817
-0.171512
-0.14038
-0.113308
-0.0904449
-0.071086
-0.0549621
-0.0415276
-0.0306397
-0.0218051
-0.0151556
-0.0104645
-0.611336
-0.511582
-0.488589
-0.424141
-0.383846
-0.330053
-0.285657
-0.23998
-0.200538
-0.16441
-0.133541
-0.106796
-0.0842726
-0.0652422
-0.0494184
-0.0362326
-0.0255592
-0.0168411
-0.0103112
-0.00553221
-0.60347
-0.505068
-0.481969
-0.41767
-0.376912
-0.322863
-0.278156
-0.232414
-0.193024
-0.157117
-0.126548
-0.100158
-0.0779953
-0.0593089
-0.0437964
-0.0308666
-0.0204127
-0.0118108
-0.00540349
-0.000519275
-0.594958
-0.49805
-0.474847
-0.410752
-0.369553
-0.315296
-0.270323
-0.224569
-0.185281
-0.149639
-0.119404
-0.0933975
-0.0716166
-0.0532897
-0.0380996
-0.0254334
-0.0152044
-0.00671914
-0.000438685
0.00456785
-0.585795
-0.490523
-0.467216
-0.403384
-0.361765
-0.307353
-0.26216
-0.21645
-0.177313
-0.14198
-0.112115
-0.0865186
-0.0651402
-0.0471882
-0.0323318
-0.0199369
-0.00993868
-0.00157112
0.00457677
0.00972251
-0.575961
-0.482469
-0.459061
-0.395552
-0.35354
-0.299029
-0.253667
-0.208059
-0.169122
-0.134144
-0.104684
-0.0795258
-0.0585702
-0.0410085
-0.0264969
-0.0143815
-0.00462019
0.00362805
0.00963583
0.0149378
-0.565455
-0.473883
-0.450377
-0.387254
-0.344877
-0.290327
-0.244848
-0.199401
-0.160716
-0.126136
-0.0971157
-0.0724231
-0.0519106
-0.0347542
-0.0205987
-0.00877121
0.000746632
0.00887346
0.0147318
0.0202064
-0.55427
-0.464761
-0.441159
-0.378487
-0.335777
-0.281248
-0.235706
-0.190481
-0.152098
-0.117961
-0.0894152
-0.0652148
-0.0451652
-0.0284294
-0.0146412
-0.00311014
0.00615716
0.0141592
0.0198604
0.0255194
-0.542402
-0.455095
-0.431403
-0.369247
-0.326239
-0.271794
-0.226246
-0.181303
-0.143275
-0.109625
-0.0815873
-0.0579054
-0.0383383
-0.0220379
-0.00862843
0.0025975
0.0116069
0.019479
0.0250151
0.0308699
-0.529848
-0.444882
-0.421104
-0.359531
-0.316262
-0.261969
-0.216473
-0.171875
-0.134251
-0.101133
-0.0736368
-0.0504992
-0.0314339
-0.0155837
-0.00256431
0.00834706
0.0170916
0.0248284
0.0301888
0.0362501
-0.516604
-0.434116
-0.410259
-0.349339
-0.305849
-0.251775
-0.206391
-0.1622
-0.125034
-0.0924905
-0.0655687
-0.043001
-0.0244563
-0.00907099
0.00354701
0.0141345
0.0226065
0.0302021
0.0353759
0.0416517
-0.50267
-0.422795
-0.398865
-0.33867
-0.295001
-0.241218
-0.196007
-0.152287
-0.115629
-0.0837032
-0.0573883
-0.0354151
-0.0174097
-0.00250395
0.00970162
0.0199556
0.0281471
0.0355947
0.0405706
0.0470668
-0.488045
-0.410916
-0.386923
-0.327524
-0.283723
-0.230303
-0.185328
-0.142142
-0.106043
-0.0747771
-0.0491006
-0.0277465
-0.0102986
0.00411338
0.0158953
0.0258061
0.0337089
0.0410009
0.0457676
0.0524872
-0.47273
-0.398479
-0.374432
-0.315904
-0.272018
-0.219036
-0.17436
-0.131772
-0.0962829
-0.0657182
-0.0407111
-0.0199999
-0.00312733
0.0107768
0.0221241
0.0316817
0.0392876
0.0464154
0.0509617
0.0579048
-0.456728
-0.385483
-0.361393
-0.303812
-0.259892
-0.207423
-0.163111
-0.121184
-0.0863553
-0.0565326
-0.0322249
-0.0121806
0.00409978
0.0174822
0.0283836
0.0375782
0.0448788
0.0518332
0.0561479
0.0633116
-0.440043
-0.37193
-0.34781
-0.291252
-0.24735
-0.195472
-0.15159
-0.110387
-0.0762675
-0.0472268
-0.0236487
-0.00429237
0.0113781
0.0242251
0.03467
0.0434915
0.0504785
0.0572493
0.0613218
0.0686999
-0.422681
-0.357823
-0.333685
-0.278228
-0.234401
-0.183192
-0.139805
-0.0993887
-0.066027
-0.0378072
-0.0149871
0.00365887
0.0187031
0.0310015
0.0409791
0.0494173
0.0560824
0.062659
0.066479
0.074062
-0.404648
-0.343164
-0.319025
-0.264748
-0.221051
-0.170591
-0.127764
-0.0881976
-0.0556414
-0.0282806
-0.00624608
0.0116681
0.0260702
0.0378069
0.0473067
0.0553516
0.0616866
0.0680576
0.0716155
0.0793907
-0.385952
-0.327959
-0.303835
-0.250819
-0.207311
-0.157678
-0.115479
-0.0768225
-0.0451186
-0.0186535
0.00256844
0.0197304
0.0334747
0.0446371
0.0536489
0.0612905
0.0672871
0.0734406
0.0767276
0.0846787
-0.366603
-0.312214
-0.288123
-0.236447
-0.19319
-0.144465
-0.102958
-0.0652727
-0.0344666
-0.00893284
0.0114505
0.0278404
0.0409121
0.0514879
0.0600016
0.0672298
0.0728802
0.0788037
0.081812
0.0899195
-0.346612
-0.295936
-0.271898
-0.221644
-0.178699
-0.130961
-0.0902134
-0.0535575
-0.0236934
0.000874286
0.0203941
0.0359929
0.0483775
0.0583548
0.0663608
0.0731659
0.0784621
0.0841429
0.0868656
0.0951068
-0.325991
-0.279135
-0.25517
-0.206419
-0.16385
-0.117179
-0.0772547
-0.0416866
-0.0128076
0.0107608
0.0293932
0.0441825
0.0558662
0.0652336
0.0727225
0.0790947
0.0840294
0.0894542
0.0918855
0.100235
-0.304756
-0.261819
-0.23795
-0.190783
-0.148654
-0.103131
-0.0640937
-0.0296699
-0.00181764
0.0207195
0.0384414
0.052404
0.0633736
0.07212
0.0790827
0.0850127
0.0895785
0.0947341
0.0968692
0.105298
-0.28292
-0.244
-0.220251
-0.174749
-0.133126
-0.0888286
-0.0507421
-0.0175176
0.00926777
0.0307431
0.0475326
0.0606518
0.0708947
0.0790097
0.0854376
0.0909162
0.0951063
0.099979
0.101814
0.110291
-0.260501
-0.22569
-0.202087
-0.158331
-0.11728
-0.0742855
-0.0372119
-0.00523992
0.0204398
0.040824
0.0566604
0.0689205
0.0784247
0.0858984
0.0917832
0.0968015
0.100609
0.105186
0.106719
0.11521
-0.237517
-0.206904
-0.183472
-0.141543
-0.101129
-0.059516
-0.0235156
0.0071524
0.0316895
0.0509548
0.0658185
0.0772045
0.0859589
0.0927818
0.0981157
0.102665
0.106085
0.110351
0.111581
0.120051
-0.213989
-0.187657
-0.164422
-0.1244
-0.0846907
-0.0445337
-0.00966585
0.0196486
0.0430076
0.0611278
0.0750002
0.0854984
0.0934924
0.0996556
0.104431
0.108504
0.111529
0.115472
0.116399
0.124811
-0.189936
-0.167963
-0.144956
-0.106918
-0.0679803
-0.0293533
0.00432434
0.0322378
0.0543851
0.0713353
0.084199
0.0937964
0.10102
0.106515
0.110726
0.114314
0.11694
0.120547
0.121172
0.129486
-0.165382
-0.147842
-0.125092
-0.0891155
-0.0510151
-0.0139899
0.0184417
0.0449087
0.0658125
0.0815695
0.0934085
0.102093
0.108538
0.113357
0.116997
0.120093
0.122315
0.125572
0.125898
0.134073
-0.140351
-0.127312
-0.104848
-0.071011
-0.0338126
0.00154099
0.0326726
0.05765
0.0772803
0.0918225
0.102622
0.110382
0.116039
0.120177
0.123239
0.125837
0.127651
0.130545
0.130576
0.138572
-0.114867
-0.106392
-0.0842465
-0.0526222
-0.016391
0.0172234
0.0470033
0.0704503
0.088779
0.102086
0.111832
0.118659
0.123521
0.12697
0.129449
0.131543
0.132945
0.135464
0.135206
0.142978
-0.0889569
-0.0851049
-0.0633088
-0.0339689
0.00123102
0.0330411
0.0614198
0.083298
0.100299
0.112353
0.121033
0.126917
0.130977
0.133732
0.135624
0.137207
0.138194
0.140328
0.139787
0.147292
-0.0626458
-0.0634737
-0.0420577
-0.0150718
0.0190342
0.0489775
0.0759079
0.0961813
0.11183
0.122614
0.130218
0.135151
0.138404
0.140458
0.14176
0.142828
0.143398
0.145133
0.144318
0.151512
-0.0359668
-0.0415188
-0.0205168
0.00404776
0.0369987
0.0650157
0.0904532
0.109088
0.123363
0.132862
0.139379
0.143354
0.145795
0.147146
0.147853
0.148402
0.148552
0.149879
0.1488
0.155636
-0.00895222
-0.0192625
0.00128924
0.023368
0.0551043
0.0811387
0.105041
0.122007
0.134888
0.143089
0.14851
0.151522
0.153146
0.15379
0.1539
0.153926
0.153655
0.154563
0.153231
0.159663
0.0183714
0.00326607
0.0233349
0.0428662
0.0733305
0.0973289
0.119657
0.134926
0.146394
0.153285
0.157604
0.159648
0.160452
0.160387
0.159897
0.159397
0.158704
0.159184
0.157613
0.163593
0.0459717
0.0260406
0.0455938
0.0625195
0.0916563
0.113569
0.134286
0.147832
0.157872
0.163444
0.166654
0.167726
0.167708
0.166932
0.165841
0.164813
0.163698
0.163741
0.161946
0.167424
0.073815
0.0490344
0.068039
0.082304
0.11006
0.12984
0.148913
0.160714
0.169312
0.173556
0.175654
0.175751
0.174909
0.173421
0.171728
0.17017
0.168633
0.168232
0.166231
0.171156
0.101867
0.0722192
0.0906426
0.102196
0.128521
0.146126
0.163523
0.173559
0.180704
0.183613
0.184595
0.183716
0.18205
0.179849
0.177555
0.175466
0.173509
0.172655
0.17047
0.174785
0.130092
0.0955662
0.113376
0.12217
0.147016
0.162407
0.178101
0.186355
0.192037
0.193607
0.193472
0.191617
0.189127
0.186214
0.183318
0.180699
0.178321
0.17701
0.174663
0.178309
0.158456
0.119046
0.13621
0.142201
0.165523
0.178666
0.192632
0.19909
0.203301
0.20353
0.202277
0.199446
0.196134
0.19251
0.189014
0.185865
0.183069
0.181294
0.178816
0.181738
0.186921
0.142628
0.159116
0.162265
0.184021
0.194883
0.207101
0.211751
0.214487
0.213373
0.211003
0.207199
0.203066
0.198734
0.194638
0.190962
0.187748
0.185508
0.182945
0.185093
0.215452
0.166281
0.182064
0.182335
0.202486
0.211042
0.221492
0.224327
0.225583
0.223129
0.219643
0.21487
0.209919
0.204882
0.200189
0.195987
0.192357
0.189652
0.187075
0.188311
0.244002
0.18997
0.20502
0.202385
0.220897
0.227123
0.235791
0.236804
0.236581
0.232788
0.228191
0.222452
0.216688
0.210949
0.205662
0.200937
0.196892
0.193728
0.191176
0.191036
0.272519
0.213655
0.227951
0.222387
0.239228
0.243107
0.249981
0.249171
0.24747
0.242342
0.23664
0.22994
0.223367
0.216931
0.211054
0.20581
0.20135
0.197735
0.195126
0.192923
0.301007
0.237326
0.250836
0.242319
0.257461
0.258977
0.264049
0.261415
0.25824
0.251783
0.244982
0.237328
0.229953
0.222825
0.216362
0.210603
0.205728
0.201669
0.199013
0.19544
0.329413
0.260941
0.273639
0.262154
0.27557
0.274715
0.277979
0.273525
0.268881
0.261104
0.253211
0.244611
0.23644
0.228626
0.221582
0.215313
0.210024
0.205527
0.202765
0.198339
0.35769
0.284463
0.296329
0.281864
0.293534
0.290301
0.291755
0.285487
0.279383
0.270295
0.261321
0.251782
0.242824
0.234331
0.226712
0.219938
0.214235
0.209311
0.206375
0.201277
0.385798
0.30786
0.318871
0.301422
0.31133
0.305718
0.305364
0.297291
0.289736
0.279349
0.269303
0.258837
0.2491
0.239936
0.231747
0.224474
0.218359
0.21302
0.209863
0.204194
0.413698
0.331097
0.341236
0.320803
0.328935
0.320947
0.318791
0.308925
0.299931
0.288258
0.277153
0.26577
0.255263
0.245436
0.236684
0.22892
0.222394
0.216652
0.21324
0.207094
0.44135
0.354141
0.363392
0.339979
0.346326
0.335972
0.33202
0.320376
0.309958
0.297014
0.284862
0.272575
0.261309
0.250828
0.241522
0.233273
0.226339
0.220205
0.216513
0.209972
0.468714
0.376958
0.385306
0.358925
0.363483
0.350773
0.345037
0.331633
0.319807
0.305608
0.292425
0.279247
0.267233
0.256109
0.246255
0.237529
0.230192
0.223678
0.219684
0.212814
0.495751
0.399513
0.406947
0.377615
0.380382
0.365334
0.357829
0.342685
0.329469
0.314034
0.299836
0.285781
0.273031
0.261274
0.250883
0.241688
0.23395
0.227069
0.222759
0.215612
0.52242
0.421774
0.428285
0.396022
0.397003
0.379637
0.370381
0.35352
0.338935
0.322284
0.307087
0.29217
0.278698
0.266321
0.2554
0.245747
0.237614
0.230375
0.22574
0.218361
0.548683
0.443707
0.449286
0.414122
0.413323
0.393666
0.382679
0.364127
0.348196
0.33035
0.314172
0.298411
0.28423
0.271244
0.259805
0.249702
0.241181
0.233597
0.22863
0.221055
0.574501
0.465277
0.469922
0.431888
0.429322
0.407402
0.394709
0.374495
0.357242
0.338224
0.321087
0.304497
0.289623
0.276041
0.264095
0.253552
0.244649
0.236731
0.231431
0.223689
0.599834
0.486453
0.490162
0.449297
0.444979
0.420831
0.406459
0.384613
0.366065
0.3459
0.327823
0.310425
0.294873
0.280709
0.268267
0.257294
0.248017
0.239777
0.234143
0.226258
0.624644
0.507201
0.509976
0.466324
0.460274
0.433936
0.417916
0.394472
0.374656
0.353371
0.334377
0.316189
0.299975
0.285243
0.272318
0.260927
0.251284
0.242732
0.236768
0.22876
0.648895
0.52749
0.529333
0.482944
0.475187
0.446701
0.429065
0.40406
0.383007
0.360629
0.340741
0.321783
0.304926
0.289641
0.276245
0.264448
0.254448
0.245595
0.239306
0.231192
0.672549
0.547287
0.548207
0.499135
0.489698
0.45911
0.439896
0.413368
0.391109
0.367668
0.34691
0.327205
0.309721
0.2939
0.280046
0.267854
0.257507
0.248364
0.241758
0.23355
0.69557
0.566563
0.566567
0.514873
0.503788
0.47115
0.450395
0.422386
0.398955
0.37448
0.352878
0.332448
0.314357
0.298015
0.283717
0.271143
0.26046
0.251038
0.244122
0.235832
0.717923
0.585285
0.584387
0.530136
0.517439
0.482804
0.460552
0.431104
0.406536
0.381061
0.358642
0.337508
0.31883
0.301985
0.287258
0.274314
0.263305
0.253616
0.246399
0.238037
0.739572
0.603425
0.60164
0.544902
0.530634
0.494059
0.470353
0.439513
0.413845
0.387403
0.364194
0.342382
0.323137
0.305805
0.290664
0.277364
0.266041
0.256095
0.248588
0.240161
0.760486
0.620954
0.6183
0.559151
0.543354
0.504902
0.47979
0.447604
0.420875
0.3935
0.36953
0.347065
0.327273
0.309473
0.293933
0.280291
0.268666
0.258474
0.250688
0.242204
0.78063
0.637844
0.634341
0.572861
0.555583
0.515319
0.48885
0.455369
0.427619
0.399347
0.374645
0.351552
0.331236
0.312987
0.297064
0.283094
0.271178
0.260752
0.252699
0.244162
0.799974
0.654068
0.649739
0.586014
0.567304
0.525297
0.497523
0.462799
0.43407
0.404938
0.379535
0.355841
0.335022
0.316343
0.300054
0.285769
0.273577
0.262927
0.254619
0.246035
0.818488
0.669599
0.664472
0.59859
0.578503
0.534824
0.5058
0.469886
0.440221
0.410267
0.384195
0.359927
0.338629
0.319539
0.3029
0.288316
0.275859
0.264998
0.256448
0.247821
0.836141
0.684413
0.678515
0.610571
0.589165
0.543888
0.513671
0.476623
0.446066
0.41533
0.388621
0.363806
0.342052
0.322572
0.305601
0.290732
0.278024
0.266962
0.258184
0.249518
0.852907
0.698486
0.691848
0.62194
0.599275
0.552479
0.521127
0.483003
0.451599
0.420121
0.392808
0.367476
0.34529
0.32544
0.308154
0.293016
0.280071
0.26882
0.259826
0.251124
0.868758
0.711794
0.70445
0.632681
0.60882
0.560585
0.52816
0.489018
0.456814
0.424637
0.396754
0.370933
0.348339
0.32814
0.310557
0.295167
0.281997
0.270569
0.261373
0.252638
0.883671
0.724317
0.716302
0.642778
0.617788
0.568198
0.534761
0.494662
0.461707
0.428871
0.400453
0.374174
0.351196
0.330671
0.31281
0.297181
0.283802
0.272207
0.262824
0.254059
0.89762
0.736033
0.727386
0.652216
0.626165
0.575306
0.540923
0.499929
0.466271
0.432821
0.403903
0.377195
0.353861
0.333029
0.314909
0.299058
0.285484
0.273735
0.264177
0.255385
0.910584
0.746924
0.737684
0.660981
0.633942
0.581902
0.546639
0.504814
0.470503
0.436483
0.4071
0.379995
0.356329
0.335214
0.316853
0.300797
0.287042
0.27515
0.265431
0.256614
0.922542
0.756971
0.747182
0.669062
0.641108
0.587978
0.551902
0.50931
0.474398
0.439852
0.410042
0.382571
0.358599
0.337224
0.31864
0.302396
0.288474
0.276452
0.266585
0.257746
0.933475
0.766159
0.755863
0.676446
0.647654
0.593526
0.556707
0.513414
0.477952
0.442925
0.412725
0.38492
0.36067
0.339056
0.32027
0.303853
0.28978
0.277639
0.267639
0.25878