/*--------------------------------*- C++ -*----------------------------------*\
  =========                 |
  \\      /  F ield         | OpenFOAM: The Open Source CFD Toolbox
   \\    /   O peration     | Website:  https://openfoam.org
    \\  /    A nd           | Version:  7
     \\/     M anipulation  |
\*---------------------------------------------------------------------------*/
FoamFile
{
    version     2.0;
    format      ascii;
    class       surfaceScalarField;
    location    "30";
    object      phi;
}
// * * * * * * * * * * * * * * * * * * * * * * * * * * * * * * * * * * * * * //

dimensions      [0 3 -1 0 0 0 0];

internalField   nonuniform List<scalar> 
1259
(
0.0042459
-9.10982e-05
0.00433476
-8.88576e-05
0.00442128
-8.65223e-05
0.00450539
-8.41066e-05
0.00458701
-8.16237e-05
0.0046661
-7.90865e-05
0.0047426
-7.65065e-05
0.0048165
-7.38947e-05
0.00488776
-7.12608e-05
0.00495637
-6.86136e-05
0.00502233
-6.59607e-05
0.00508564
-6.33092e-05
0.00514631
-6.0664e-05
0.00520434
-5.80315e-05
0.00525975
-5.54112e-05
0.00531256
-5.28149e-05
0.00536279
-5.0224e-05
0.00541047
-4.76822e-05
0.00545557
-4.50963e-05
0.00549822
-4.26563e-05
0.00553818
-3.99601e-05
0.00557598
-3.78031e-05
0.00561055
-3.4565e-05
0.00564391
-3.33606e-05
0.00567205
-2.81458e-05
0.0057018
-2.97443e-05
-1.98409e-05
-2.00286e-10
0.00426078
-0.000181324
0.0043488
-0.000176881
0.00443453
-0.000172248
0.00451788
-0.000167455
0.00459878
-0.000162528
0.00467719
-0.000157492
0.00475305
-0.00015237
0.00482634
-0.000147185
0.00489704
-0.000141956
0.00496512
-0.000136699
0.00503059
-0.000131431
0.00509345
-0.000126165
0.0051537
-0.000120912
0.00521135
-0.000115683
0.00526641
-0.000110479
0.00531892
-0.000105322
0.00536887
-0.000100175
0.00541632
-9.51262e-05
0.00546121
-8.99886e-05
0.00550369
-8.51423e-05
0.00554352
-7.97838e-05
0.00558122
-7.55021e-05
0.00561571
-6.90614e-05
0.00564903
-6.66802e-05
0.00567719
-5.62983e-05
0.00570694
-5.95013e-05
-3.97973e-05
0.00429016
-0.000269829
0.00437653
-0.000263257
0.00446069
-0.000256402
0.00454254
-0.000249307
0.00462202
-0.000242012
0.00469908
-0.000234553
0.00477368
-0.000226967
0.00484578
-0.000219285
0.00491536
-0.000211535
0.0049824
-0.000203745
0.00504691
-0.000195936
0.00510887
-0.00018813
0.0051683
-0.000180342
0.00522521
-0.000172589
0.0052796
-0.000164872
0.00533151
-0.000157225
0.00538092
-0.000149592
0.0054279
-0.000142105
0.0054724
-0.000134484
0.00551455
-0.000127298
0.00555411
-0.000119345
0.00559162
-0.000113003
0.00562598
-0.00010343
0.00565923
-9.99266e-05
0.0056874
-8.44722e-05
0.00571719
-8.92911e-05
-5.99897e-05
0.0043333
-0.000355809
0.00441726
-0.000347217
0.00449911
-0.000338251
0.00457877
-0.000328966
0.00465618
-0.000319415
0.00473127
-0.000309647
0.00480401
-0.000299708
0.00487437
-0.000289641
0.00494231
-0.000279483
0.00500784
-0.00026927
0.00507093
-0.00025903
0.0051316
-0.000248793
0.00518983
-0.000238577
0.00524565
-0.000228408
0.00529906
-0.000218284
0.00535009
-0.000208251
0.00539873
-0.000198235
0.00544504
-0.000188411
0.00548896
-0.000178407
0.00553064
-0.000168982
0.00556983
-0.000158532
0.00560705
-0.000150225
0.00564125
-0.000137624
0.0056744
-0.00013308
0.00570262
-0.000112694
0.00573248
-0.000119145
-8.05472e-05
0.00438917
-0.000438526
0.00447001
-0.000428056
0.00454888
-0.000417123
0.00462571
-0.000405794
0.00470043
-0.000394133
0.00477298
-0.000382202
0.00484333
-0.000370058
0.00491144
-0.000357751
0.00497729
-0.00034533
0.00504086
-0.000332838
0.00510214
-0.000320311
0.00516113
-0.000307785
0.00521783
-0.000295282
0.00527226
-0.000282835
0.00532442
-0.00027044
0.00537432
-0.000258158
0.00542198
-0.000245893
0.00546744
-0.000233866
0.00551064
-0.00022161
0.00555173
-0.000210075
0.00559046
-0.00019726
0.00562735
-0.000187112
0.00566134
-0.00017162
0.0056944
-0.000166141
0.00572272
-0.000141007
0.00575268
-0.000149113
-0.000101611
0.00445638
-0.000517324
0.00453347
-0.000505151
0.00460877
-0.000492426
0.00468221
-0.00047923
0.00475371
-0.000465637
0.00482323
-0.00045172
0.00489072
-0.000437546
0.00495615
-0.000423177
0.00501949
-0.000408669
0.00508072
-0.000394072
0.00513984
-0.000379432
0.00519684
-0.000364787
0.00525173
-0.000350168
0.00530451
-0.000335611
0.00535518
-0.000321114
0.00540377
-0.000306747
0.00545027
-0.000292397
0.00549473
-0.000278328
0.0055371
-0.000263981
0.00557752
-0.000250493
0.00561573
-0.000235471
0.00565226
-0.000223634
0.00568605
-0.000205418
0.00571905
-0.000199133
0.00574752
-0.000169479
0.00577767
-0.000179264
-0.00012334
0.00453328
-0.000591653
0.00460611
-0.000577977
0.00467735
-0.000563664
0.00474692
-0.000548803
0.00481477
-0.000533482
0.00488083
-0.000517784
0.00494507
-0.000501786
0.00500745
-0.000485558
0.00506795
-0.000469165
0.00512654
-0.000452665
0.00518322
-0.00043611
0.00523798
-0.000419547
0.00529082
-0.000403008
0.00534174
-0.000386537
0.00539076
-0.00037013
0.00543788
-0.000353869
0.00548311
-0.000337623
0.00552648
-0.0003217
0.00556795
-0.000305448
0.00560765
-0.000290191
0.00564532
-0.000273148
0.00568149
-0.000259798
0.00571512
-0.000239054
0.0057481
-0.000232112
0.00577683
-0.000198204
0.00580726
-0.000209698
-0.00014591
0.00461801
-0.000661074
0.00468616
-0.000646121
0.00475294
-0.000630444
0.00481828
-0.000614147
0.00488213
-0.000597327
0.00494442
-0.000580075
0.00500511
-0.000562479
0.00506417
-0.000544619
0.00512157
-0.000526566
0.0051773
-0.000508388
0.00523133
-0.000490142
0.00528366
-0.000471881
0.00533429
-0.000453642
0.00538323
-0.000435474
0.00543048
-0.000417373
0.00547604
-0.000399433
0.00551992
-0.000381503
0.00556216
-0.000363937
0.0056027
-0.000345988
0.00564168
-0.00032917
0.00567884
-0.000310313
0.00571469
-0.000295649
0.00574824
-0.000272599
0.00578129
-0.000265169
0.0058104
-0.000227308
0.00584124
-0.000240542
-0.00016952
0.00470849
-0.000725276
0.00477166
-0.000709289
0.00483371
-0.000692496
0.00489457
-0.000675009
0.00495418
-0.000656935
0.00501248
-0.000638376
0.00506943
-0.000619429
0.005125
-0.000600181
0.00517914
-0.000580713
0.00523185
-0.0005611
0.00528312
-0.000541404
0.00533292
-0.000521685
0.00538126
-0.000501983
0.00542814
-0.000482356
0.00547357
-0.000462796
0.00551754
-0.000443411
0.00556007
-0.000424029
0.00560118
-0.000405049
0.00564083
-0.000385633
0.00567914
-0.000367479
0.00571586
-0.000347038
0.00575149
-0.000331278
0.00578506
-0.000306167
0.00581832
-0.000298431
0.00584797
-0.000256953
0.00587938
-0.000271962
-0.000194396
0.00480252
-0.000784079
0.00486055
-0.000767319
0.00491772
-0.00074967
0.00497397
-0.000731253
0.00502922
-0.000712187
0.00508342
-0.000692581
0.00513654
-0.000672542
0.00518852
-0.000652166
0.00523935
-0.000631542
0.005289
-0.000610749
0.00533745
-0.000589859
0.00538471
-0.000568937
0.00543075
-0.000548027
0.00547558
-0.000527191
0.00551921
-0.000506423
0.00556164
-0.000485841
0.00560287
-0.000465254
0.00564292
-0.000445107
0.00568176
-0.000424469
0.0057195
-0.000405222
0.00575591
-0.000383444
0.00579145
-0.000366822
0.0058252
-0.000339915
0.00585884
-0.000332071
0.00588923
-0.00028734
0.00592142
-0.000304157
-0.00022079
0.0048978
-0.00083744
0.00495065
-0.000820178
0.00500293
-0.000801943
0.00505454
-0.000782868
0.00510544
-0.000763079
0.00515555
-0.000742697
0.00520484
-0.000721835
0.00525328
-0.000700599
0.00530082
-0.000679085
0.00534745
-0.000657381
0.00539316
-0.000635562
0.00543792
-0.000613701
0.00548174
-0.000591846
0.00552461
-0.000570065
0.00556654
-0.000548349
0.00560753
-0.000526831
0.00564757
-0.000505299
0.00568671
-0.000484244
0.00572488
-0.000462642
0.00576222
-0.000442558
0.00579848
-0.000419704
0.00583413
-0.000402467
0.00586826
-0.000374047
0.00590249
-0.000366303
0.00593386
-0.00031871
0.00596707
-0.00033737
-0.000248981
0.004992
-0.000885454
0.00503979
-0.000867966
0.00508727
-0.000849422
0.00513436
-0.000829963
0.00518101
-0.000809727
0.00522715
-0.000788842
0.00527275
-0.000767432
0.00531776
-0.000745609
0.00536215
-0.000723477
0.0054059
-0.000701132
0.005449
-0.000678656
0.00549142
-0.000656127
0.00553317
-0.000633596
0.00557425
-0.00061114
0.00561465
-0.000588746
0.00565438
-0.000566561
0.00569343
-0.000544352
0.00573184
-0.000522656
0.00576956
-0.000500359
0.0058067
-0.000479704
0.00584305
-0.000456047
0.00587903
-0.000438453
0.0059138
-0.000408817
0.00594888
-0.000401386
0.00598152
-0.000351343
0.00601603
-0.000371883
-0.00027928
0.00508283
0.00512577
-0.000910909
0.00516868
-0.000892333
0.00521148
-0.000872767
0.00525412
-0.000852358
0.00529652
-0.000831245
0.00533865
-0.000809559
0.00538046
-0.000787423
0.00542193
-0.000764947
0.00546303
-0.000742234
0.00550375
-0.000719374
0.00554407
-0.000696449
0.00558399
-0.000673516
0.00562351
-0.000650656
0.00566262
-0.000627857
0.00570134
-0.000605278
0.00573965
-0.000582665
0.00577759
-0.000560603
0.00581512
-0.000537885
0.00585235
-0.000516932
0.00588905
-0.000492752
0.00592567
-0.000475066
0.00596137
-0.000444524
0.00599761
-0.000437626
0.00603184
-0.000385565
0.00606797
-0.000408019
-0.000312028
0.00520648
-0.000949357
0.00524517
-0.000931021
0.00528402
-0.00091162
0.00532297
-0.00089131
0.00536197
-0.000870239
0.00540096
-0.000848547
0.0054399
-0.000826366
0.00547877
-0.000803816
0.00551754
-0.000781005
0.00555619
-0.00075803
0.00559473
-0.000734981
0.00563313
-0.000711917
0.0056714
-0.000688927
0.00570954
-0.000665996
0.00574756
-0.000643296
0.00578545
-0.000620556
0.00582325
-0.000598403
0.00586091
-0.000575543
0.00589854
-0.00055457
0.00593595
-0.000530154
0.00597353
-0.000512646
0.00601052
-0.000481515
0.00604826
-0.000475373
0.00608444
-0.000421741
0.00612257
-0.000446144
-0.000347593
0.00527991
-0.000983768
0.00531483
-0.000965939
0.00535018
-0.000946967
0.00538588
-0.000927017
0.00542189
-0.00090625
0.00545816
-0.000884815
0.00549465
-0.000862852
0.00553132
-0.000840489
0.00556816
-0.000817845
0.00560515
-0.00079502
0.00564228
-0.000772112
0.00567955
-0.000749185
0.00571696
-0.000726333
0.0057545
-0.000703542
0.0057922
-0.000680995
0.00583005
-0.000658402
0.00586808
-0.000636435
0.00590625
-0.000613713
0.00594468
-0.000592998
0.00598316
-0.000568637
0.00602209
-0.000551579
0.00606076
-0.000520184
0.00610041
-0.000515021
0.00613895
-0.000460277
0.00617946
-0.000486664
-0.000386374
0.00534419
-0.0010147
0.00537588
-0.000997633
0.00540826
-0.000979342
0.00544125
-0.000960006
0.00547479
-0.000939793
0.00550884
-0.000918866
0.00554336
-0.000897372
0.00557832
-0.000875451
0.0056137
-0.000853226
0.00564949
-0.000830809
0.00568568
-0.0008083
0.00572227
-0.00078577
0.00575925
-0.000763321
0.00579665
-0.000740935
0.00583446
-0.00071881
0.00587269
-0.000696636
0.00591139
-0.000675129
0.0059505
-0.000652824
0.00599015
-0.000632645
0.00603014
-0.000608631
0.00607086
-0.000592294
0.00611164
-0.000560967
0.00615362
-0.000557004
0.00619496
-0.000501617
0.00623832
-0.000530021
-0.000428797
0.0053976
-0.0010428
0.0054267
-0.00102674
0.00545672
-0.00100936
0.0054876
-0.000990877
0.00551926
-0.000971457
0.00555167
-0.000951274
0.00558479
-0.000930489
0.00561858
-0.00090925
0.00565305
-0.000887688
0.00568816
-0.000865923
0.00572392
-0.000844063
0.00576034
-0.000822183
0.0057974
-0.000800391
0.00583514
-0.000778669
0.00587356
-0.000757229
0.00591266
-0.00073574
0.0059525
-0.000714963
0.00599302
-0.000693352
0.00603436
-0.000673985
0.00607634
-0.000650609
0.00611931
-0.000635265
0.00616269
-0.000604339
0.00620748
-0.000601796
0.0062521
-0.000546242
0.00629878
-0.000576695
-0.000475311
0.00543862
-0.00106879
0.00546583
-0.00105395
0.00549418
-0.00103772
0.00552361
-0.0010203
0.00555404
-0.00100189
0.00558545
-0.000982678
0.00561778
-0.000962826
0.00565103
-0.000942494
0.00568516
-0.000921825
0.00572019
-0.000900945
0.00575609
-0.00087997
0.00579289
-0.00085898
0.00583059
-0.000838092
0.00586921
-0.000817284
0.00590876
-0.000796784
0.00594927
-0.000776242
0.00599076
-0.00075646
0.00603322
-0.000735814
0.00607677
-0.000717531
0.00612124
-0.000695083
0.00616698
-0.000681
0.00621345
-0.00065081
0.00626156
-0.000649904
0.00630998
-0.000594664
0.00636048
-0.000627199
-0.000526388
0.00546607
-0.00109342
0.00549213
-0.00108001
0.00551954
-0.00106512
0.00554822
-0.00104898
0.00557812
-0.00103179
0.00560919
-0.00101375
0.00564141
-0.00099504
0.00567474
-0.000975828
0.00570919
-0.000956268
0.00574473
-0.000936493
0.00578139
-0.000916628
0.00581917
-0.000896759
0.00585809
-0.000877009
0.00589816
-0.000857358
0.00593942
-0.000838045
0.00598188
-0.000818701
0.00602559
-0.000800174
0.00607054
-0.000780759
0.00611684
-0.000763829
0.00616435
-0.000742595
0.00621339
-0.000730039
0.0062635
-0.00070092
0.00631546
-0.000701866
0.00636822
-0.000647424
0.00642309
-0.00068207
-0.000582517
0.00547937
-0.00111743
0.005505
-0.00110565
0.00553217
-0.0010923
0.00556081
-0.00107762
0.00559086
-0.00106184
0.00562227
-0.00104517
0.00565502
-0.00102779
0.0056891
-0.0010099
0.00572448
-0.000991652
0.00576118
-0.000973192
0.0057992
-0.000954653
0.00583857
-0.000936125
0.0058793
-0.000917742
0.00592142
-0.000899479
0.00596497
-0.000881596
0.00600997
-0.000863695
0.00605648
-0.000846681
0.00610447
-0.000828753
0.00615409
-0.000813454
0.00620519
-0.000793696
0.00625812
-0.000782969
0.0063124
-0.000755195
0.00636883
-0.000758301
0.0064264
-0.000704994
0.00648635
-0.000742017
-0.00064411
0.0037264
-0.00110788
0.00371771
-0.00109695
0.00370984
-0.00108443
0.00370275
-0.00107054
0.00369642
-0.00105551
0.00369082
-0.00103956
0.00368591
-0.00102288
0.00368167
-0.00100566
0.00367809
-0.000988066
0.00367513
-0.000970233
0.00367278
-0.000952304
0.00367102
-0.000934365
0.00366983
-0.000916557
0.0036692
-0.000898846
0.00366912
-0.000881509
0.00366954
-0.000864121
0.00367049
-0.000847634
0.0036719
-0.000830162
0.00367384
-0.00081539
0.00367614
-0.000796
0.00367902
-0.000785848
0.0036821
-0.000758269
0.00368591
-0.000762117
0.00368963
-0.000708709
0.00369438
-0.00074677
-0.000648798
0.00396308
-0.00109633
0.00395246
-0.00108633
0.00394272
-0.00107469
0.00393383
-0.00106165
0.00392575
-0.00104743
0.00391845
-0.00103226
0.00391191
-0.00101634
0.00390609
-0.000999845
0.00390097
-0.000982952
0.00389654
-0.000965801
0.00389277
-0.000948534
0.00388964
-0.000931237
0.00388714
-0.000914057
0.00388525
-0.00089695
0.00388395
-0.000880212
0.00388321
-0.000863385
0.00388305
-0.000847475
0.0038834
-0.000830511
0.00388433
-0.000816313
0.00388567
-0.00079734
0.00388763
-0.000787807
0.00388984
-0.000760482
0.00389281
-0.000765092
0.00389579
-0.000711687
0.00389976
-0.000750735
-0.000652919
0.00421587
-0.00108264
0.00420316
-0.00107362
0.00419139
-0.00106292
0.00418053
-0.00105078
0.00417054
-0.00103744
0.00416139
-0.00102311
0.00415305
-0.001008
0.00414549
-0.000992289
0.00413869
-0.000976156
0.00413264
-0.000959742
0.0041273
-0.000943194
0.00412265
-0.000926594
0.00411869
-0.000910096
0.00411539
-0.000893646
0.00411273
-0.000877559
0.0041107
-0.000861349
0.00410929
-0.000846066
0.00410844
-0.000829664
0.00410822
-0.000816086
0.00410847
-0.000797592
0.00410937
-0.000788709
0.00411061
-0.000761722
0.0041126
-0.000767083
0.00411476
-0.000713842
0.00411777
-0.000753746
-0.000656399
0.00448575
-0.00106662
0.00447079
-0.00105865
0.00445683
-0.00104896
0.00444383
-0.00103779
0.00443177
-0.00102538
0.00442061
-0.00101195
0.00441031
-0.000997704
0.00440086
-0.000982836
0.00439223
-0.000967521
0.00438439
-0.000951902
0.00437732
-0.000936128
0.00437101
-0.000920281
0.00436543
-0.00090452
0.00436057
-0.000888785
0.00435641
-0.000873404
0.00435293
-0.000857865
0.00435013
-0.000843263
0.00434794
-0.00082748
0.00434643
0.00434545
0.00434516
0.00434529
0.00434616
0.00434738
0.00434929
0.00477372
0.00475635
0.00474004
0.00472476
0.00471047
0.00469713
0.00468473
0.00467322
0.00466258
0.0046528
0.00464385
0.00463571
0.00462837
0.00462179
0.00461598
0.0046109
0.00460655
)
;

boundaryField
{
    inlet
    {
        type            calculated;
        value           nonuniform 0();
    }
    outlet
    {
        type            calculated;
        value           nonuniform List<scalar> 
25
(
0.00369907
0.00390388
0.00412125
0.00435203
0.00572164
0.0057269
0.00573739
0.00575303
0.00577375
0.0057994
0.00582983
0.00586485
0.00590426
0.00594782
0.00599526
0.00604633
0.00610072
0.00615813
0.00621825
0.00628074
0.00634529
0.00641156
0.00647922
0.00654794
0.00572164
)
;
    }
    cylinder
    {
        type            calculated;
        value           nonuniform 0();
    }
    top
    {
        type            symmetryPlane;
        value           nonuniform 0();
    }
    bottom
    {
        type            symmetryPlane;
        value           nonuniform 0();
    }
    defaultFaces
    {
        type            empty;
        value           nonuniform 0();
    }
    procBoundary11to7
    {
        type            processor;
        value           nonuniform List<scalar> 
28
(
-4.21522e-11
-4.58959e-11
-4.94917e-11
-5.25983e-11
-5.43557e-11
-5.49003e-11
-5.3297e-11
-4.98954e-11
-4.24133e-11
-3.23885e-11
-1.59477e-11
6.37366e-12
3.47878e-11
7.16511e-11
1.15951e-10
1.68455e-10
2.29434e-10
2.95822e-10
3.65399e-10
4.31763e-10
4.91379e-10
5.2537e-10
5.38231e-10
4.84745e-10
3.88381e-10
2.10246e-10
-1.98413e-05
-0.0057018
)
;
    }
    procBoundary11to10
    {
        type            processor;
        value           nonuniform List<scalar> 
25
(
-0.0041548
-0.00417055
-0.00420165
-0.00424732
-0.00430645
-0.00437758
-0.00445896
-0.00454859
-0.00464429
-0.00474371
-0.00484443
-0.00494399
-0.00503993
-0.000928345
-0.00516803
-0.0052455
-0.00531325
-0.0053695
-0.00541263
-0.00544144
-0.00545535
-0.00373595
-0.00397463
-0.00422957
-0.00450176
)
;
    }
    procBoundary11to14
    {
        type            processor;
        value           uniform -0.0047922;
    }
    procBoundary11to15
    {
        type            processor;
        value           nonuniform List<scalar> 
27
(
-0.000814569
-0.000796617
-0.000788416
-0.000761858
-0.000767953
-0.000715055
-0.000755664
-0.000659131
-0.00104814
-0.00104128
-0.00103265
-0.00102251
-0.00101109
-0.000998612
-0.000985296
-0.000971328
-0.000956888
-0.000942121
-0.000927179
-0.000912141
-0.000897175
-0.00088221
-0.000867591
-0.000852781
-0.000838912
0.00460288
-0.000823808
)
;
    }
}


// ************************************************************************* //
