# Forces      
# CofR        : (0.000000e+00 0.000000e+00 0.000000e+00)
# Time        forces(pressure viscous porous)	moments(pressure viscous porous)
0.005         	((1.530461e+01 6.198934e-08 2.564705e-19) (1.148936e-01 1.231871e-10 -1.024911e-20) (0.000000e+00 0.000000e+00 0.000000e+00)) ((5.606533e-19 2.016590e-18 3.719296e-14) (-1.069687e-20 3.995770e-21 -7.720165e-13) (0.000000e+00 0.000000e+00 0.000000e+00))
0.01          	((4.188341e-01 -9.973965e-08 -1.218190e-21) (1.074597e-01 -9.371505e-11 2.139947e-22) (0.000000e+00 0.000000e+00 0.000000e+00)) ((1.524240e-20 5.520755e-20 1.782584e-13) (-2.251034e-22 1.340992e-20 1.908104e-11) (0.000000e+00 0.000000e+00 0.000000e+00))
0.015         	((1.577332e-01 3.878078e-08 4.401936e-22) (1.036470e-01 6.486360e-11 1.513030e-22) (0.000000e+00 0.000000e+00 0.000000e+00)) ((5.654465e-21 2.070545e-20 -1.132547e-13) (-5.819357e-23 1.307940e-20 2.893833e-11) (0.000000e+00 0.000000e+00 0.000000e+00))
0.02          	((1.140904e-01 -8.320014e-09 5.157108e-22) (1.005742e-01 3.644202e-11 1.512657e-22) (0.000000e+00 0.000000e+00 0.000000e+00)) ((4.083165e-21 1.496095e-20 -2.395030e-15) (-3.173771e-23 1.273759e-20 2.612055e-11) (0.000000e+00 0.000000e+00 0.000000e+00))
0.025         	((9.776774e-02 4.951514e-09 5.523285e-22) (9.785488e-02 3.620588e-11 1.544420e-22) (0.000000e+00 0.000000e+00 0.000000e+00)) ((3.512232e-21 1.280923e-20 -6.333901e-14) (-2.464254e-23 1.241820e-20 2.257332e-11) (0.000000e+00 0.000000e+00 0.000000e+00))
0.03          	((9.021119e-02 8.298611e-09 5.449481e-22) (9.536958e-02 1.150213e-10 1.602241e-22) (0.000000e+00 0.000000e+00 0.000000e+00)) ((3.271594e-21 1.181205e-20 5.098416e-14) (-2.371502e-23 1.211903e-20 4.431618e-11) (0.000000e+00 0.000000e+00 0.000000e+00))
0.035         	((8.612072e-02 7.132819e-09 5.137855e-22) (9.306010e-02 1.915599e-10 1.678065e-22) (0.000000e+00 0.000000e+00 0.000000e+00)) ((3.146176e-21 1.127427e-20 -2.200421e-14) (-2.472870e-23 1.183696e-20 5.642582e-11) (0.000000e+00 0.000000e+00 0.000000e+00))
0.04          	((8.352828e-02 -2.903714e-09 4.677605e-22) (9.089261e-02 2.377104e-10 1.766444e-22) (0.000000e+00 0.000000e+00 0.000000e+00)) ((3.055110e-21 1.093667e-20 1.134040e-14) (-2.623014e-23 1.156976e-20 6.290169e-11) (0.000000e+00 0.000000e+00 0.000000e+00))
0.045         	((8.163198e-02 -9.354228e-09 4.146482e-22) (8.884481e-02 2.580700e-10 1.862266e-22) (0.000000e+00 0.000000e+00 0.000000e+00)) ((2.970952e-21 1.069208e-20 -1.836306e-14) (-2.769996e-23 1.131568e-20 6.590990e-11) (0.000000e+00 0.000000e+00 0.000000e+00))
0.05          	((8.007417e-02 1.865679e-09 3.576183e-22) (8.690087e-02 2.982798e-10 1.962617e-22) (0.000000e+00 0.000000e+00 0.000000e+00)) ((2.888452e-21 1.049091e-20 1.851733e-14) (-2.892474e-23 1.107349e-20 6.572787e-11) (0.000000e+00 0.000000e+00 0.000000e+00))
0.055         	((7.869470e-02 2.983836e-09 3.001756e-22) (8.504885e-02 3.319079e-10 2.065350e-22) (0.000000e+00 0.000000e+00 0.000000e+00)) ((2.807151e-21 1.031072e-20 -3.759240e-14) (-2.983148e-23 1.084198e-20 6.316724e-11) (0.000000e+00 0.000000e+00 0.000000e+00))
0.06          	((7.740876e-02 7.262469e-09 2.424314e-22) (8.327957e-02 3.637285e-10 2.169832e-22) (0.000000e+00 0.000000e+00 0.000000e+00)) ((2.727774e-21 1.014005e-20 -6.618988e-15) (-3.049780e-23 1.062026e-20 5.879357e-11) (0.000000e+00 0.000000e+00 0.000000e+00))
0.065         	((7.618696e-02 2.282374e-09 1.860067e-22) (8.158553e-02 3.754123e-10 2.275301e-22) (0.000000e+00 0.000000e+00 0.000000e+00)) ((2.650045e-21 9.975848e-21 -2.700177e-14) (-3.102621e-23 1.040746e-20 5.309334e-11) (0.000000e+00 0.000000e+00 0.000000e+00))
0.07          	((7.501631e-02 1.751959e-09 1.314035e-22) (7.996054e-02 3.769219e-10 2.381054e-22) (0.000000e+00 0.000000e+00 0.000000e+00)) ((2.574923e-21 9.817133e-21 -3.190827e-14) (-3.151561e-23 1.020287e-20 4.637000e-11) (0.000000e+00 0.000000e+00 0.000000e+00))
0.075         	((7.388362e-02 1.467903e-09 7.765105e-23) (7.839946e-02 3.712561e-10 2.487179e-22) (0.000000e+00 0.000000e+00 0.000000e+00)) ((2.504345e-21 9.662446e-21 -7.375210e-14) (-3.208709e-23 1.000597e-20 3.892408e-11) (0.000000e+00 0.000000e+00 0.000000e+00))
0.08          	((7.279800e-02 1.085587e-09 2.679570e-23) (7.689777e-02 3.591728e-10 2.592880e-22) (0.000000e+00 0.000000e+00 0.000000e+00)) ((2.438336e-21 9.513919e-21 -1.995504e-14) (-3.273156e-23 9.816127e-21 3.101745e-11) (0.000000e+00 0.000000e+00 0.000000e+00))
0.085         	((7.175407e-02 -4.083956e-09 -2.237423e-23) (7.545159e-02 3.647069e-10 2.698261e-22) (0.000000e+00 0.000000e+00 0.000000e+00)) ((2.376670e-21 9.370614e-21 -1.401061e-13) (-3.353292e-23 9.633024e-21 5.853762e-11) (0.000000e+00 0.000000e+00 0.000000e+00))
0.09          	((7.075606e-02 -5.665396e-09 -6.896593e-23) (7.405750e-02 3.649685e-10 2.802969e-22) (0.000000e+00 0.000000e+00 0.000000e+00)) ((2.320096e-21 9.233632e-21 -1.375297e-13) (-3.442847e-23 9.456140e-21 8.237719e-11) (0.000000e+00 0.000000e+00 0.000000e+00))
0.095         	((6.979410e-02 -6.020059e-09 -1.143143e-22) (7.271256e-02 3.624530e-10 2.907506e-22) (0.000000e+00 0.000000e+00 0.000000e+00)) ((2.268860e-21 9.101323e-21 -1.830799e-13) (-3.539937e-23 9.285235e-21 1.026852e-10) (0.000000e+00 0.000000e+00 0.000000e+00))
0.1           	((6.887934e-02 -6.918556e-09 -1.573938e-22) (7.141399e-02 3.553731e-10 3.011603e-22) (0.000000e+00 0.000000e+00 0.000000e+00)) ((2.220917e-21 8.975658e-21 -1.778711e-13) (-3.635324e-23 9.119886e-21 1.199155e-10) (0.000000e+00 0.000000e+00 0.000000e+00))
0.105         	((6.799634e-02 -7.219381e-09 -1.998503e-22) (7.015946e-02 3.481951e-10 3.115740e-22) (0.000000e+00 0.000000e+00 0.000000e+00)) ((2.176654e-21 8.853961e-21 -2.128337e-13) (-3.732732e-23 8.959924e-21 1.342629e-10) (0.000000e+00 0.000000e+00 0.000000e+00))
0.11          	((6.715684e-02 -7.922445e-09 -2.399555e-22) (6.894672e-02 3.373937e-10 3.219528e-22) (0.000000e+00 0.000000e+00 0.000000e+00)) ((2.134825e-21 8.738326e-21 -2.015763e-13) (-3.826761e-23 8.805046e-21 1.461885e-10) (0.000000e+00 0.000000e+00 0.000000e+00))
0.115         	((6.635244e-02 -8.375727e-09 -2.787408e-22) (6.777378e-02 3.270724e-10 3.323239e-22) (0.000000e+00 0.000000e+00 0.000000e+00)) ((2.095517e-21 8.627322e-21 -2.254609e-13) (-3.919807e-23 8.655042e-21 1.559124e-10) (0.000000e+00 0.000000e+00 0.000000e+00))
0.12          	((6.558695e-02 -8.788079e-09 -3.159069e-22) (6.663880e-02 3.143464e-10 3.426762e-22) (0.000000e+00 0.000000e+00 0.000000e+00)) ((2.058040e-21 8.521718e-21 -2.152438e-13) (-4.008586e-23 8.509681e-21 1.637267e-10) (0.000000e+00 0.000000e+00 0.000000e+00))
0.125         	((6.486460e-02 -9.095055e-09 -3.514852e-22) (6.553996e-02 3.005288e-10 3.529483e-22) (0.000000e+00 0.000000e+00 0.000000e+00)) ((2.021889e-21 8.421607e-21 -2.110570e-13) (-4.100716e-23 8.368793e-21 1.698390e-10) (0.000000e+00 0.000000e+00 0.000000e+00))
0.13          	((6.417783e-02 -9.342289e-09 -3.860609e-22) (6.447563e-02 2.841256e-10 3.631647e-22) (0.000000e+00 0.000000e+00 0.000000e+00)) ((1.986033e-21 8.326748e-21 -2.167862e-13) (-4.189179e-23 8.232199e-21 1.744507e-10) (0.000000e+00 0.000000e+00 0.000000e+00))
0.135         	((6.351230e-02 -1.000892e-08 -4.198079e-22) (6.344452e-02 2.691420e-10 3.733519e-22) (0.000000e+00 0.000000e+00 0.000000e+00)) ((1.954569e-21 8.234533e-21 -2.540265e-13) (-4.280336e-23 8.099668e-21 1.778164e-10) (0.000000e+00 0.000000e+00 0.000000e+00))
0.14          	((6.288754e-02 -9.924479e-09 -4.521252e-22) (6.244514e-02 2.540020e-10 3.834891e-22) (0.000000e+00 0.000000e+00 0.000000e+00)) ((1.921881e-21 8.148245e-21 -2.382019e-13) (-4.366328e-23 7.971077e-21 1.801018e-10) (0.000000e+00 0.000000e+00 0.000000e+00))
0.145         	((6.228392e-02 -1.051328e-08 -4.836423e-22) (6.147631e-02 2.391649e-10 3.935777e-22) (0.000000e+00 0.000000e+00 0.000000e+00)) ((1.892390e-21 8.064705e-21 -2.706521e-13) (-4.452215e-23 7.846252e-21 1.815036e-10) (0.000000e+00 0.000000e+00 0.000000e+00))
0.15          	((6.171513e-02 -1.099849e-08 -5.137943e-22) (6.053676e-02 2.238404e-10 4.036034e-22) (0.000000e+00 0.000000e+00 0.000000e+00)) ((1.862408e-21 7.986187e-21 -2.686791e-13) (-4.533686e-23 7.725069e-21 1.821526e-10) (0.000000e+00 0.000000e+00 0.000000e+00))
0.155         	((6.117639e-02 -1.099606e-08 -5.422572e-22) (5.962534e-02 2.050167e-10 4.135319e-22) (0.000000e+00 0.000000e+00 0.000000e+00)) ((1.833423e-21 7.911732e-21 -2.519746e-13) (-4.617889e-23 7.607390e-21 1.821717e-10) (0.000000e+00 0.000000e+00 0.000000e+00))
0.16          	((6.066050e-02 -1.090142e-08 -5.706974e-22) (5.874098e-02 1.911973e-10 4.233996e-22) (0.000000e+00 0.000000e+00 0.000000e+00)) ((1.806426e-21 7.840501e-21 -2.901910e-13) (-4.698769e-23 7.493089e-21 1.816628e-10) (0.000000e+00 0.000000e+00 0.000000e+00))
0.165         	((6.017590e-02 -1.127891e-08 -5.980410e-22) (5.788256e-02 1.746379e-10 4.331476e-22) (0.000000e+00 0.000000e+00 0.000000e+00)) ((1.782255e-21 7.773283e-21 -2.756582e-13) (-4.777038e-23 7.382060e-21 1.807557e-10) (0.000000e+00 0.000000e+00 0.000000e+00))
0.17          	((5.970826e-02 -1.194337e-08 -6.248884e-22) (5.704919e-02 1.637519e-10 4.428103e-22) (0.000000e+00 0.000000e+00 0.000000e+00)) ((1.757749e-21 7.708745e-21 -3.096026e-13) (-4.851143e-23 7.274160e-21 1.795594e-10) (0.000000e+00 0.000000e+00 0.000000e+00))
0.175         	((5.926472e-02 -1.177166e-08 -6.510952e-22) (5.623995e-02 1.513175e-10 4.523919e-22) (0.000000e+00 0.000000e+00 0.000000e+00)) ((1.733784e-21 7.647629e-21 -2.977504e-13) (-4.924089e-23 7.169282e-21 1.782326e-10) (0.000000e+00 0.000000e+00 0.000000e+00))
0.18          	((5.884203e-02 -1.217847e-08 -6.761985e-22) (5.545401e-02 1.406911e-10 4.618630e-22) (0.000000e+00 0.000000e+00 0.000000e+00)) ((1.710824e-21 7.589469e-21 -3.166448e-13) (-4.994984e-23 7.067320e-21 1.767694e-10) (0.000000e+00 0.000000e+00 0.000000e+00))
0.185         	((5.844664e-02 -1.162620e-08 -7.003157e-22) (5.469044e-02 1.256881e-10 4.711830e-22) (0.000000e+00 0.000000e+00 0.000000e+00)) ((1.688118e-21 7.534875e-21 -3.102999e-13) (-5.068342e-23 6.968190e-21 1.752114e-10) (0.000000e+00 0.000000e+00 0.000000e+00))
0.19          	((5.806208e-02 -1.280664e-08 -7.241320e-22) (5.394858e-02 1.188897e-10 4.804223e-22) (0.000000e+00 0.000000e+00 0.000000e+00)) ((1.666871e-21 7.482189e-21 -3.355095e-13) (-5.138629e-23 6.871769e-21 1.735594e-10) (0.000000e+00 0.000000e+00 0.000000e+00))
0.195         	((5.770035e-02 -1.240452e-08 -7.471408e-22) (5.322762e-02 1.077994e-10 4.895350e-22) (0.000000e+00 0.000000e+00 0.000000e+00)) ((1.645737e-21 7.432536e-21 -3.310917e-13) (-5.207466e-23 6.777989e-21 1.720018e-10) (0.000000e+00 0.000000e+00 0.000000e+00))
0.2           	((5.735444e-02 -1.244691e-08 -7.696161e-22) (5.252686e-02 9.679478e-11 4.985499e-22) (0.000000e+00 0.000000e+00 0.000000e+00)) ((1.626284e-21 7.385143e-21 -3.447541e-13) (-5.273566e-23 6.686755e-21 1.704494e-10) (0.000000e+00 0.000000e+00 0.000000e+00))
0.205         	((5.703665e-02 -1.264244e-08 -7.910590e-22) (5.184550e-02 8.661607e-11 5.074236e-22) (0.000000e+00 0.000000e+00 0.000000e+00)) ((1.609820e-21 7.341000e-21 -3.507134e-13) (-5.340877e-23 6.598016e-21 1.689798e-10) (0.000000e+00 0.000000e+00 0.000000e+00))
0.21          	((5.672396e-02 -1.255844e-08 -8.126888e-22) (5.118295e-02 7.930882e-11 5.161870e-22) (0.000000e+00 0.000000e+00 0.000000e+00)) ((1.592069e-21 7.298102e-21 -3.639725e-13) (-5.402228e-23 6.511635e-21 1.676037e-10) (0.000000e+00 0.000000e+00 0.000000e+00))
0.215         	((5.643271e-02 -1.259159e-08 -8.333152e-22) (5.053854e-02 6.680867e-11 5.248109e-22) (0.000000e+00 0.000000e+00 0.000000e+00)) ((1.575365e-21 7.258085e-21 -3.477898e-13) (-5.461966e-23 6.427566e-21 1.663274e-10) (0.000000e+00 0.000000e+00 0.000000e+00))
0.22          	((5.615982e-02 -1.334097e-08 -8.536136e-22) (4.991165e-02 6.437756e-11 5.332897e-22) (0.000000e+00 0.000000e+00 0.000000e+00)) ((1.560517e-21 7.220448e-21 -3.747027e-13) (-5.519359e-23 6.345736e-21 1.652076e-10) (0.000000e+00 0.000000e+00 0.000000e+00))
0.225         	((5.589140e-02 -1.257202e-08 -8.736073e-22) (4.930181e-02 5.535762e-11 5.416591e-22) (0.000000e+00 0.000000e+00 0.000000e+00)) ((1.543280e-21 7.183943e-21 -3.691671e-13) (-5.574527e-23 6.266045e-21 1.642247e-10) (0.000000e+00 0.000000e+00 0.000000e+00))
0.23          	((5.564307e-02 -1.304672e-08 -8.933572e-22) (4.870841e-02 5.348108e-11 5.498928e-22) (0.000000e+00 0.000000e+00 0.000000e+00)) ((1.528912e-21 7.149890e-21 -3.832124e-13) (-5.627138e-23 6.188465e-21 1.633974e-10) (0.000000e+00 0.000000e+00 0.000000e+00))
0.235         	((5.540369e-02 -1.324725e-08 -9.127168e-22) (4.813097e-02 4.680001e-11 5.580048e-22) (0.000000e+00 0.000000e+00 0.000000e+00)) ((1.513348e-21 7.117355e-21 -3.828631e-13) (-5.676967e-23 6.112903e-21 1.627419e-10) (0.000000e+00 0.000000e+00 0.000000e+00))
0.24          	((5.517992e-02 -1.365538e-08 -9.313787e-22) (4.756896e-02 4.271299e-11 5.659712e-22) (0.000000e+00 0.000000e+00 0.000000e+00)) ((1.499346e-21 7.086870e-21 -3.874546e-13) (-5.723820e-23 6.039317e-21 1.622737e-10) (0.000000e+00 0.000000e+00 0.000000e+00))
0.245         	((5.496950e-02 -1.331136e-08 -9.496724e-22) (4.702186e-02 3.349588e-11 5.738130e-22) (0.000000e+00 0.000000e+00 0.000000e+00)) ((1.486127e-21 7.058066e-21 -4.038017e-13) (-5.770081e-23 5.967639e-21 1.619985e-10) (0.000000e+00 0.000000e+00 0.000000e+00))
0.25          	((5.477761e-02 -1.358144e-08 -9.674052e-22) (4.648913e-02 2.536363e-11 5.815305e-22) (0.000000e+00 0.000000e+00 0.000000e+00)) ((1.475514e-21 7.031253e-21 -4.008867e-13) (-5.820272e-23 5.897818e-21 1.618975e-10) (0.000000e+00 0.000000e+00 0.000000e+00))
0.255         	((5.459809e-02 -1.394448e-08 -9.848827e-22) (4.597025e-02 1.462032e-11 5.891056e-22) (0.000000e+00 0.000000e+00 0.000000e+00)) ((1.466486e-21 7.006006e-21 -4.093481e-13) (-5.868923e-23 5.829796e-21 1.618740e-10) (0.000000e+00 0.000000e+00 0.000000e+00))
0.26          	((5.442042e-02 -1.420307e-08 -1.001909e-21) (4.546497e-02 7.363083e-12 5.965542e-22) (0.000000e+00 0.000000e+00 0.000000e+00)) ((1.453505e-21 6.981972e-21 -3.920471e-13) (-5.913975e-23 5.763489e-21 1.621089e-10) (0.000000e+00 0.000000e+00 0.000000e+00))
0.265         	((5.425724e-02 -1.394193e-08 -1.018863e-21) (4.497277e-02 -5.422596e-13 6.038680e-22) (0.000000e+00 0.000000e+00 0.000000e+00)) ((1.443620e-21 6.959325e-21 -4.018820e-13) (-5.958168e-23 5.698891e-21 1.623450e-10) (0.000000e+00 0.000000e+00 0.000000e+00))
0.27          	((5.409701e-02 -1.420987e-08 -1.035743e-21) (4.449333e-02 -7.513372e-12 6.110544e-22) (0.000000e+00 0.000000e+00 0.000000e+00)) ((1.431471e-21 6.937604e-21 -4.072177e-13) (-5.997579e-23 5.635911e-21 1.628431e-10) (0.000000e+00 0.000000e+00 0.000000e+00))
0.275         	((5.395012e-02 -1.446797e-08 -1.051919e-21) (4.402621e-02 -1.773439e-11 6.180909e-22) (0.000000e+00 0.000000e+00 0.000000e+00)) ((1.421175e-21 6.917338e-21 -4.149404e-13) (-6.035686e-23 5.574534e-21 1.633951e-10) (0.000000e+00 0.000000e+00 0.000000e+00))
0.28          	((5.380877e-02 -1.414712e-08 -1.067878e-21) (4.357106e-02 -2.245600e-11 6.249930e-22) (0.000000e+00 0.000000e+00 0.000000e+00)) ((1.410133e-21 6.898013e-21 -4.105498e-13) (-6.070463e-23 5.514693e-21 1.639966e-10) (0.000000e+00 0.000000e+00 0.000000e+00))
0.285         	((5.367641e-02 -1.389362e-08 -1.083483e-21) (4.312749e-02 -3.115553e-11 6.317559e-22) (0.000000e+00 0.000000e+00 0.000000e+00)) ((1.399670e-21 6.879799e-21 -4.011403e-13) (-6.103036e-23 5.456354e-21 1.649172e-10) (0.000000e+00 0.000000e+00 0.000000e+00))
0.29          	((5.355136e-02 -1.421800e-08 -1.098750e-21) (4.269517e-02 -3.913151e-11 6.383787e-22) (0.000000e+00 0.000000e+00 0.000000e+00)) ((1.389117e-21 6.862602e-21 -3.945060e-13) (-6.132962e-23 5.399466e-21 1.658309e-10) (0.000000e+00 0.000000e+00 0.000000e+00))
0.295         	((5.343343e-02 -1.400073e-08 -1.113663e-21) (4.227374e-02 -4.622302e-11 6.448596e-22) (0.000000e+00 0.000000e+00 0.000000e+00)) ((1.378579e-21 6.846360e-21 -4.073710e-13) (-6.160372e-23 5.343992e-21 1.668915e-10) (0.000000e+00 0.000000e+00 0.000000e+00))
0.3           	((5.333625e-02 -1.379097e-08 -1.127819e-21) (4.186270e-02 -5.970739e-11 6.512225e-22) (0.000000e+00 0.000000e+00 0.000000e+00)) ((1.373331e-21 6.831740e-21 -4.230348e-13) (-6.196007e-23 5.289879e-21 1.680752e-10) (0.000000e+00 0.000000e+00 0.000000e+00))
0.305         	((5.323057e-02 -1.917416e-08 -1.142844e-21) (4.146186e-02 -8.289983e-11 6.574795e-22) (0.000000e+00 0.000000e+00 0.000000e+00)) ((1.363935e-21 6.817136e-21 -4.065145e-13) (-6.221610e-23 5.237055e-21 1.693380e-10) (0.000000e+00 0.000000e+00 0.000000e+00))
0.31          	((5.314837e-02 -9.326648e-09 -1.156209e-21) (4.107085e-02 -8.073454e-11 6.636076e-22) (0.000000e+00 0.000000e+00 0.000000e+00)) ((1.357855e-21 6.804808e-21 -4.133970e-13) (-6.252577e-23 5.185551e-21 1.704905e-10) (0.000000e+00 0.000000e+00 0.000000e+00))
0.315         	((5.306108e-02 -1.883277e-08 -1.169721e-21) (4.068951e-02 -9.940564e-11 6.695998e-22) (0.000000e+00 0.000000e+00 0.000000e+00)) ((1.348858e-21 6.792605e-21 -3.942608e-13) (-6.277147e-23 5.135300e-21 1.717858e-10) (0.000000e+00 0.000000e+00 0.000000e+00))
0.32          	((5.297832e-02 -1.403879e-08 -1.183561e-21) (4.031745e-02 -1.080437e-10 6.754641e-22) (0.000000e+00 0.000000e+00 0.000000e+00)) ((1.340568e-21 6.780565e-21 -3.978219e-13) (-6.302015e-23 5.086264e-21 1.731800e-10) (0.000000e+00 0.000000e+00 0.000000e+00))
0.325         	((5.290182e-02 -1.407557e-08 -1.196928e-21) (3.995445e-02 -1.162201e-10 6.811993e-22) (0.000000e+00 0.000000e+00 0.000000e+00)) ((1.331934e-21 6.769532e-21 -4.002340e-13) (-6.323714e-23 5.038409e-21 1.745944e-10) (0.000000e+00 0.000000e+00 0.000000e+00))
0.33          	((5.283316e-02 -1.403703e-08 -1.209773e-21) (3.960019e-02 -1.250043e-10 6.867984e-22) (0.000000e+00 0.000000e+00 0.000000e+00)) ((1.323917e-21 6.759310e-21 -3.947476e-13) (-6.344690e-23 4.991705e-21 1.760392e-10) (0.000000e+00 0.000000e+00 0.000000e+00))
0.335         	((5.277045e-02 -1.407246e-08 -1.222316e-21) (3.925442e-02 -1.338269e-10 6.922682e-22) (0.000000e+00 0.000000e+00 0.000000e+00)) ((1.315893e-21 6.749836e-21 -3.940368e-13) (-6.364010e-23 4.946117e-21 1.774959e-10) (0.000000e+00 0.000000e+00 0.000000e+00))
0.34          	((5.271390e-02 -1.373245e-08 -1.234878e-21) (3.891686e-02 -1.425440e-10 6.976196e-22) (0.000000e+00 0.000000e+00 0.000000e+00)) ((1.307969e-21 6.741013e-21 -3.895719e-13) (-6.382114e-23 4.901614e-21 1.789811e-10) (0.000000e+00 0.000000e+00 0.000000e+00))
0.345         	((5.266301e-02 -1.377985e-08 -1.247608e-21) (3.858722e-02 -1.513622e-10 7.028570e-22) (0.000000e+00 0.000000e+00 0.000000e+00)) ((1.299997e-21 6.732737e-21 -3.887743e-13) (-6.398909e-23 4.858165e-21 1.804708e-10) (0.000000e+00 0.000000e+00 0.000000e+00))
0.35          	((5.262179e-02 -1.395288e-08 -1.259767e-21) (3.826523e-02 -1.609697e-10 7.079565e-22) (0.000000e+00 0.000000e+00 0.000000e+00)) ((1.292326e-21 6.725407e-21 -3.852363e-13) (-6.414866e-23 4.815737e-21 1.819772e-10) (0.000000e+00 0.000000e+00 0.000000e+00))
0.355         	((5.259934e-02 -1.387505e-08 -1.271686e-21) (3.795047e-02 -1.721270e-10 7.129417e-22) (0.000000e+00 0.000000e+00 0.000000e+00)) ((1.287437e-21 6.719433e-21 -3.935334e-13) (-6.433065e-23 4.774287e-21 1.834705e-10) (0.000000e+00 0.000000e+00 0.000000e+00))
0.36          	((5.257977e-02 -1.385756e-08 -1.283846e-21) (3.764271e-02 -1.803706e-10 7.177939e-22) (0.000000e+00 0.000000e+00 0.000000e+00)) ((1.278715e-21 6.714415e-21 -3.987968e-13) (-6.446980e-23 4.733817e-21 1.849596e-10) (0.000000e+00 0.000000e+00 0.000000e+00))
0.365         	((5.251507e-02 -1.441277e-08 -1.294457e-21) (3.734239e-02 -1.915998e-10 7.225229e-22) (0.000000e+00 0.000000e+00 0.000000e+00)) ((1.271920e-21 6.707571e-21 -3.918027e-13) (-6.462018e-23 4.694309e-21 1.864739e-10) (0.000000e+00 0.000000e+00 0.000000e+00))
0.37          	((5.242571e-02 -1.383906e-08 -1.304196e-21) (3.704971e-02 -2.035215e-10 7.271711e-22) (0.000000e+00 0.000000e+00 0.000000e+00)) ((1.265328e-21 6.698841e-21 -3.509456e-13) (-6.474067e-23 4.655686e-21 1.879305e-10) (0.000000e+00 0.000000e+00 0.000000e+00))
0.375         	((5.235733e-02 -1.409820e-08 -1.313110e-21) (3.676442e-02 -2.157369e-10 7.317594e-22) (0.000000e+00 0.000000e+00 0.000000e+00)) ((1.261535e-21 6.690528e-21 -3.767453e-13) (-6.484963e-23 4.617938e-21 1.892537e-10) (0.000000e+00 0.000000e+00 0.000000e+00))
0.38          	((5.232370e-02 -1.341136e-08 -1.323137e-21) (3.648588e-02 -2.256112e-10 7.362772e-22) (0.000000e+00 0.000000e+00 0.000000e+00)) ((1.255229e-21 6.684958e-21 -3.800192e-13) (-6.492875e-23 4.581054e-21 1.905452e-10) (0.000000e+00 0.000000e+00 0.000000e+00))
0.385         	((5.228591e-02 -1.353860e-08 -1.333016e-21) (3.621399e-02 -2.365523e-10 7.407106e-22) (0.000000e+00 0.000000e+00 0.000000e+00)) ((1.249353e-21 6.679473e-21 -3.610286e-13) (-6.500102e-23 4.545027e-21 1.918107e-10) (0.000000e+00 0.000000e+00 0.000000e+00))
0.39          	((5.226885e-02 -1.329783e-08 -1.343192e-21) (3.594830e-02 -2.476702e-10 7.450457e-22) (0.000000e+00 0.000000e+00 0.000000e+00)) ((1.242832e-21 6.676127e-21 -3.677041e-13) (-6.506552e-23 4.509831e-21 1.930482e-10) (0.000000e+00 0.000000e+00 0.000000e+00))
0.395         	((5.225285e-02 -1.354531e-08 -1.353654e-21) (3.568866e-02 -2.585258e-10 7.493032e-22) (0.000000e+00 0.000000e+00 0.000000e+00)) ((1.236699e-21 6.673106e-21 -3.586244e-13) (-6.512287e-23 4.475453e-21 1.942040e-10) (0.000000e+00 0.000000e+00 0.000000e+00))
0.4           	((5.223629e-02 -1.345063e-08 -1.363311e-21) (3.543496e-02 -2.690888e-10 7.534467e-22) (0.000000e+00 0.000000e+00 0.000000e+00)) ((1.230597e-21 6.670236e-21 -3.607771e-13) (-6.518014e-23 4.441855e-21 1.953217e-10) (0.000000e+00 0.000000e+00 0.000000e+00))
0.405         	((5.222702e-02 -1.346630e-08 -1.372683e-21) (3.518699e-02 -2.799098e-10 7.574946e-22) (0.000000e+00 0.000000e+00 0.000000e+00)) ((1.224812e-21 6.667965e-21 -3.514706e-13) (-6.523815e-23 4.409016e-21 1.964112e-10) (0.000000e+00 0.000000e+00 0.000000e+00))
0.41          	((5.223117e-02 -1.349659e-08 -1.382934e-21) (3.494441e-02 -2.912922e-10 7.614638e-22) (0.000000e+00 0.000000e+00 0.000000e+00)) ((1.218804e-21 6.666348e-21 -3.579752e-13) (-6.528885e-23 4.376910e-21 1.974506e-10) (0.000000e+00 0.000000e+00 0.000000e+00))
0.415         	((5.223545e-02 -1.342978e-08 -1.392826e-21) (3.470709e-02 -3.033179e-10 7.653295e-22) (0.000000e+00 0.000000e+00 0.000000e+00)) ((1.212929e-21 6.664899e-21 -3.495096e-13) (-6.533288e-23 4.345510e-21 1.984263e-10) (0.000000e+00 0.000000e+00 0.000000e+00))
0.42          	((5.223150e-02 -1.341242e-08 -1.401828e-21) (3.447508e-02 -3.155807e-10 7.690898e-22) (0.000000e+00 0.000000e+00 0.000000e+00)) ((1.207206e-21 6.663320e-21 -3.423416e-13) (-6.537518e-23 4.314794e-21 1.992930e-10) (0.000000e+00 0.000000e+00 0.000000e+00))
0.425         	((5.223863e-02 -1.350067e-08 -1.411009e-21) (3.424812e-02 -3.271023e-10 7.727674e-22) (0.000000e+00 0.000000e+00 0.000000e+00)) ((1.201642e-21 6.662507e-21 -3.439719e-13) (-6.541540e-23 4.284752e-21 2.000959e-10) (0.000000e+00 0.000000e+00 0.000000e+00))
0.43          	((5.225992e-02 -1.355619e-08 -1.420323e-21) (3.402592e-02 -3.391535e-10 7.763668e-22) (0.000000e+00 0.000000e+00 0.000000e+00)) ((1.197650e-21 6.662804e-21 -3.398565e-13) (-6.545541e-23 4.255356e-21 2.008489e-10) (0.000000e+00 0.000000e+00 0.000000e+00))
0.435         	((5.228359e-02 -1.347344e-08 -1.429675e-21) (3.380834e-02 -3.505498e-10 7.798843e-22) (0.000000e+00 0.000000e+00 0.000000e+00)) ((1.192612e-21 6.663282e-21 -3.276268e-13) (-6.548203e-23 4.226598e-21 2.015544e-10) (0.000000e+00 0.000000e+00 0.000000e+00))
0.44          	((5.229146e-02 -1.332616e-08 -1.438204e-21) (3.359549e-02 -3.623916e-10 7.832974e-22) (0.000000e+00 0.000000e+00 0.000000e+00)) ((1.187241e-21 6.663172e-21 -3.280958e-13) (-6.549598e-23 4.198464e-21 2.021881e-10) (0.000000e+00 0.000000e+00 0.000000e+00))
0.445         	((5.230238e-02 -1.342527e-08 -1.446642e-21) (3.338724e-02 -3.742778e-10 7.866264e-22) (0.000000e+00 0.000000e+00 0.000000e+00)) ((1.182058e-21 6.663368e-21 -3.197393e-13) (-6.550255e-23 4.170938e-21 2.027963e-10) (0.000000e+00 0.000000e+00 0.000000e+00))
0.45          	((5.232677e-02 -1.326579e-08 -1.455412e-21) (3.318332e-02 -3.871593e-10 7.898828e-22) (0.000000e+00 0.000000e+00 0.000000e+00)) ((1.176504e-21 6.664246e-21 -3.236947e-13) (-6.550991e-23 4.144005e-21 2.033391e-10) (0.000000e+00 0.000000e+00 0.000000e+00))
0.455         	((5.235215e-02 -1.324392e-08 -1.464496e-21) (3.298359e-02 -3.993268e-10 7.930739e-22) (0.000000e+00 0.000000e+00 0.000000e+00)) ((1.170775e-21 6.665230e-21 -3.146002e-13) (-6.552719e-23 4.117641e-21 2.037934e-10) (0.000000e+00 0.000000e+00 0.000000e+00))
0.46          	((5.238944e-02 -1.376502e-08 -1.472685e-21) (3.278795e-02 -4.121194e-10 7.961705e-22) (0.000000e+00 0.000000e+00 0.000000e+00)) ((1.166952e-21 6.667422e-21 -3.130433e-13) (-6.549816e-23 4.091852e-21 2.041690e-10) (0.000000e+00 0.000000e+00 0.000000e+00))
0.465         	((5.242128e-02 -1.304708e-08 -1.480862e-21) (3.259632e-02 -4.248624e-10 7.991877e-22) (0.000000e+00 0.000000e+00 0.000000e+00)) ((1.162215e-21 6.669418e-21 -3.118777e-13) (-6.548249e-23 4.066610e-21 2.044910e-10) (0.000000e+00 0.000000e+00 0.000000e+00))
0.47          	((5.244480e-02 -1.340648e-08 -1.489126e-21) (3.240870e-02 -4.379671e-10 8.021441e-22) (0.000000e+00 0.000000e+00 0.000000e+00)) ((1.158653e-21 6.671577e-21 -3.010991e-13) (-6.548480e-23 4.041893e-21 2.047021e-10) (0.000000e+00 0.000000e+00 0.000000e+00))
0.475         	((5.248389e-02 -1.334450e-08 -1.497259e-21) (3.222486e-02 -4.506733e-10 8.050311e-22) (0.000000e+00 0.000000e+00 0.000000e+00)) ((1.155000e-21 6.674412e-21 -3.020981e-13) (-6.545889e-23 4.017704e-21 2.048141e-10) (0.000000e+00 0.000000e+00 0.000000e+00))
0.48          	((5.251870e-02 -1.322772e-08 -1.505475e-21) (3.204472e-02 -4.623707e-10 8.078511e-22) (0.000000e+00 0.000000e+00 0.000000e+00)) ((1.149670e-21 6.676799e-21 -2.998932e-13) (-6.545399e-23 3.994012e-21 2.048558e-10) (0.000000e+00 0.000000e+00 0.000000e+00))
0.485         	((5.255804e-02 -1.346034e-08 -1.513428e-21) (3.186817e-02 -4.752348e-10 8.106025e-22) (0.000000e+00 0.000000e+00 0.000000e+00)) ((1.145136e-21 6.679687e-21 -2.859372e-13) (-6.543406e-23 3.970813e-21 2.048704e-10) (0.000000e+00 0.000000e+00 0.000000e+00))
0.49          	((5.259824e-02 -1.341707e-08 -1.521338e-21) (3.169512e-02 -4.876771e-10 8.132902e-22) (0.000000e+00 0.000000e+00 0.000000e+00)) ((1.140397e-21 6.682686e-21 -2.886378e-13) (-6.541350e-23 3.948092e-21 2.047932e-10) (0.000000e+00 0.000000e+00 0.000000e+00))
0.495         	((5.264082e-02 -1.346454e-08 -1.529098e-21) (3.152547e-02 -5.002941e-10 8.159128e-22) (0.000000e+00 0.000000e+00 0.000000e+00)) ((1.135758e-21 6.685935e-21 -2.690973e-13) (-6.538843e-23 3.925836e-21 2.046557e-10) (0.000000e+00 0.000000e+00 0.000000e+00))
0.5           	((5.268851e-02 -1.329529e-08 -1.537255e-21) (3.135909e-02 -5.127401e-10 8.184920e-22) (0.000000e+00 0.000000e+00 0.000000e+00)) ((1.131141e-21 6.689503e-21 -2.906562e-13) (-6.535383e-23 3.904028e-21 2.044634e-10) (0.000000e+00 0.000000e+00 0.000000e+00))
0.505         	((5.272424e-02 -1.326632e-08 -1.544592e-21) (3.119608e-02 -5.252270e-10 8.209891e-22) (0.000000e+00 0.000000e+00 0.000000e+00)) ((1.126505e-21 6.692666e-21 -2.766483e-13) (-6.532987e-23 3.882680e-21 2.042023e-10) (0.000000e+00 0.000000e+00 0.000000e+00))
0.51          	((5.277164e-02 -1.343977e-08 -1.552190e-21) (3.103622e-02 -5.377575e-10 8.234313e-22) (0.000000e+00 0.000000e+00 0.000000e+00)) ((1.121959e-21 6.696525e-21 -2.634437e-13) (-6.530394e-23 3.861763e-21 2.038678e-10) (0.000000e+00 0.000000e+00 0.000000e+00))
0.515         	((5.282109e-02 -1.339923e-08 -1.559711e-21) (3.087945e-02 -5.499586e-10 8.258166e-22) (0.000000e+00 0.000000e+00 0.000000e+00)) ((1.117469e-21 6.700610e-21 -2.699647e-13) (-6.527492e-23 3.841268e-21 2.034793e-10) (0.000000e+00 0.000000e+00 0.000000e+00))
0.52          	((5.287308e-02 -1.334994e-08 -1.567129e-21) (3.072568e-02 -5.606273e-10 8.281455e-22) (0.000000e+00 0.000000e+00 0.000000e+00)) ((1.113069e-21 6.704973e-21 -2.590472e-13) (-6.524309e-23 3.821186e-21 2.030219e-10) (0.000000e+00 0.000000e+00 0.000000e+00))
0.525         	((5.292695e-02 -1.376505e-08 -1.574600e-21) (3.057485e-02 -5.717170e-10 8.304218e-22) (0.000000e+00 0.000000e+00 0.000000e+00)) ((1.108628e-21 6.709511e-21 -2.474833e-13) (-6.520825e-23 3.801506e-21 2.025152e-10) (0.000000e+00 0.000000e+00 0.000000e+00))
0.53          	((5.298179e-02 -1.346629e-08 -1.582341e-21) (3.042689e-02 -5.823839e-10 8.326477e-22) (0.000000e+00 0.000000e+00 0.000000e+00)) ((1.103852e-21 6.714037e-21 -2.565508e-13) (-6.517147e-23 3.782216e-21 2.020115e-10) (0.000000e+00 0.000000e+00 0.000000e+00))
0.535         	((5.304386e-02 -1.371355e-08 -1.590430e-21) (3.028176e-02 -5.941145e-10 8.348302e-22) (0.000000e+00 0.000000e+00 0.000000e+00)) ((1.099297e-21 6.719198e-21 -2.489284e-13) (-6.513366e-23 3.763310e-21 2.014633e-10) (0.000000e+00 0.000000e+00 0.000000e+00))
0.54          	((5.313137e-02 -1.386892e-08 -1.599156e-21) (3.013948e-02 -6.072879e-10 8.369632e-22) (0.000000e+00 0.000000e+00 0.000000e+00)) ((1.095259e-21 6.726344e-21 -2.379770e-13) (-6.509676e-23 3.744780e-21 2.008534e-10) (0.000000e+00 0.000000e+00 0.000000e+00))
0.545         	((5.318290e-02 -1.315795e-08 -1.605914e-21) (2.999985e-02 -6.185218e-10 8.389998e-22) (0.000000e+00 0.000000e+00 0.000000e+00)) ((1.091689e-21 6.731428e-21 -2.423670e-13) (-6.506930e-23 3.726632e-21 2.001892e-10) (0.000000e+00 0.000000e+00 0.000000e+00))
0.55          	((5.319007e-02 -1.289513e-08 -1.610761e-21) (2.986273e-02 -6.291807e-10 8.409646e-22) (0.000000e+00 0.000000e+00 0.000000e+00)) ((1.086561e-21 6.732960e-21 -2.347214e-13) (-6.501864e-23 3.708858e-21 1.994438e-10) (0.000000e+00 0.000000e+00 0.000000e+00))