/*--------------------------------*- C++ -*----------------------------------*\
  =========                 |
  \\      /  F ield         | OpenFOAM: The Open Source CFD Toolbox
   \\    /   O peration     | Website:  https://openfoam.org
    \\  /    A nd           | Version:  7
     \\/     M anipulation  |
\*---------------------------------------------------------------------------*/
FoamFile
{
    version     2.0;
    format      ascii;
    class       volScalarField;
    location    "85";
    object      p;
}
// * * * * * * * * * * * * * * * * * * * * * * * * * * * * * * * * * * * * * //

dimensions      [0 2 -2 0 0 0 0];

internalField   nonuniform List<scalar> 
10500
(
-0.398309
-0.386416
-0.367714
-0.341721
-0.315568
-0.287492
-0.261156
-0.234108
-0.213163
-0.187274
-0.399324
-0.386936
-0.368179
-0.342048
-0.315854
-0.287724
-0.261372
-0.234215
-0.213391
-0.186824
-0.401342
-0.387971
-0.369103
-0.342697
-0.316422
-0.288185
-0.261798
-0.234427
-0.213844
-0.185938
-0.404344
-0.38951
-0.370477
-0.343659
-0.317263
-0.288865
-0.262426
-0.23474
-0.214512
-0.184644
-0.408303
-0.391537
-0.372283
-0.344921
-0.318363
-0.289754
-0.263244
-0.235149
-0.215381
-0.182984
-0.413183
-0.394029
-0.374502
-0.346467
-0.319706
-0.290836
-0.264235
-0.235646
-0.216428
-0.181011
-0.418945
-0.396958
-0.37711
-0.348278
-0.321272
-0.292093
-0.265379
-0.236225
-0.217626
-0.178789
-0.425509
-0.400314
-0.380081
-0.350331
-0.323041
-0.293507
-0.266653
-0.236878
-0.218939
-0.17639
-0.432828
-0.404056
-0.383383
-0.352602
-0.324987
-0.295055
-0.268032
-0.237595
-0.220322
-0.173893
-0.440846
-0.408144
-0.386985
-0.355066
-0.327085
-0.296715
-0.269487
-0.23837
-0.221724
-0.171377
-0.44949
-0.412543
-0.390852
-0.357698
-0.32931
-0.298464
-0.270988
-0.239193
-0.223084
-0.168923
-0.458683
-0.417214
-0.394951
-0.36047
-0.331634
-0.300277
-0.272501
-0.240055
-0.224336
-0.166605
-0.468347
-0.422118
-0.399244
-0.363356
-0.33403
-0.302129
-0.273995
-0.240946
-0.225405
-0.164492
-0.478399
-0.427214
-0.403694
-0.366328
-0.336472
-0.303994
-0.275433
-0.241854
-0.226212
-0.162647
-0.488757
-0.432459
-0.408265
-0.369357
-0.338929
-0.305844
-0.276781
-0.242768
-0.22668
-0.161148
-0.499331
-0.437809
-0.412916
-0.372416
-0.341372
-0.307648
-0.278002
-0.243673
-0.226731
-0.160088
-0.510035
-0.44322
-0.417608
-0.375473
-0.343769
-0.309372
-0.279059
-0.244551
-0.226255
-0.159406
-0.520778
-0.448647
-0.422303
-0.378497
-0.346087
-0.310979
-0.279922
-0.245394
-0.22508
-0.158786
-0.531471
-0.454045
-0.426956
-0.381453
-0.348288
-0.312424
-0.280562
-0.246201
-0.223149
-0.159065
-0.541983
-0.459337
-0.431504
-0.384291
-0.350321
-0.313654
-0.280943
-0.246903
-0.220991
-0.165956
-0.552134
-0.464405
-0.435852
-0.38694
-0.352124
-0.314602
-0.281003
-0.24727
-0.219188
-0.186813
-0.562035
-0.469363
-0.440061
-0.389422
-0.353683
-0.315223
-0.280677
-0.247079
-0.216655
-0.193562
-0.571518
-0.474091
-0.44403
-0.391656
-0.354923
-0.315442
-0.279893
-0.246175
-0.213598
-0.194448
-0.580441
-0.478495
-0.447675
-0.39357
-0.35577
-0.315186
-0.27859
-0.244517
-0.210293
-0.193156
-0.588694
-0.482507
-0.450925
-0.395095
-0.356155
-0.314388
-0.276709
-0.242089
-0.206641
-0.190215
-0.596167
-0.486055
-0.453707
-0.396161
-0.356005
-0.312979
-0.274189
-0.238875
-0.202528
-0.185877
-0.602743
-0.489062
-0.455937
-0.39669
-0.355241
-0.31089
-0.270971
-0.234865
-0.197881
-0.180436
-0.608304
-0.491442
-0.457528
-0.396598
-0.353782
-0.308055
-0.267004
-0.230052
-0.192647
-0.174115
-0.612725
-0.493107
-0.458385
-0.395797
-0.351548
-0.304411
-0.262239
-0.224434
-0.186786
-0.167058
-0.615882
-0.493965
-0.458412
-0.394198
-0.348458
-0.299897
-0.256636
-0.218008
-0.18027
-0.159358
-0.61765
-0.493917
-0.457507
-0.39171
-0.344433
-0.29446
-0.250163
-0.210777
-0.17308
-0.151077
-0.617902
-0.492864
-0.455566
-0.38824
-0.3394
-0.288052
-0.242793
-0.202744
-0.165211
-0.142253
-0.616511
-0.490703
-0.452485
-0.383699
-0.333289
-0.280631
-0.23451
-0.193917
-0.156663
-0.13291
-0.613355
-0.48733
-0.448159
-0.378
-0.326037
-0.272165
-0.225302
-0.184306
-0.147444
-0.123065
-0.60831
-0.482643
-0.442488
-0.371062
-0.317588
-0.262628
-0.215167
-0.173924
-0.13757
-0.112732
-0.601261
-0.476539
-0.435373
-0.362808
-0.307898
-0.252003
-0.204107
-0.16279
-0.127057
-0.101925
-0.592098
-0.468921
-0.426723
-0.353173
-0.296929
-0.240283
-0.192135
-0.150924
-0.115929
-0.0906576
-0.580731
-0.459701
-0.416457
-0.3421
-0.284656
-0.227469
-0.179266
-0.138348
-0.104211
-0.0789471
-0.567071
-0.448795
-0.404501
-0.329543
-0.271063
-0.213568
-0.165522
-0.125092
-0.0919289
-0.0668124
-0.550915
-0.436063
-0.390761
-0.315453
-0.256142
-0.198598
-0.150931
-0.111182
-0.0791129
-0.0542748
-0.531939
-0.42131
-0.37513
-0.299785
-0.239892
-0.182581
-0.135525
-0.096653
-0.0657933
-0.041359
-0.51082
-0.404832
-0.357741
-0.282604
-0.222357
-0.165557
-0.119343
-0.0815393
-0.0520037
-0.0280955
-0.487282
-0.38645
-0.338503
-0.263883
-0.203554
-0.147562
-0.102424
-0.0658793
-0.0377792
-0.0145124
-0.461189
-0.366076
-0.317383
-0.243626
-0.183517
-0.128641
-0.0848148
-0.0497137
-0.0231647
-0.000634323
-0.432543
-0.343695
-0.294391
-0.221866
-0.162295
-0.108846
-0.0665623
-0.0330841
-0.00820667
0.0135077
-0.401373
-0.319315
-0.269555
-0.198648
-0.139945
-0.0882328
-0.0477184
-0.0160327
0.00711436
0.0278278
-0.367715
-0.292952
-0.242917
-0.17403
-0.116534
-0.0668655
-0.0283387
0.00138509
0.0227187
0.0423302
-0.331628
-0.26464
-0.214536
-0.148079
-0.0921353
-0.0448112
-0.00848093
0.019129
0.0385639
0.0569719
-0.293187
-0.23443
-0.184486
-0.120878
-0.0668318
-0.0221422
0.011795
0.0371486
0.0546124
0.0717087
-0.252493
-0.202394
-0.152859
-0.0925178
-0.0407118
0.00106631
0.0324253
0.0553918
0.0708231
0.0864968
-0.209664
-0.168619
-0.119762
-0.063102
-0.0138703
0.024735
0.0533448
0.073805
0.0871538
0.101291
-0.164841
-0.133217
-0.0853085
-0.0327445
0.0135922
0.0487813
0.0744859
0.0923334
0.103562
0.116043
-0.118182
-0.0963161
-0.0496329
-0.00156435
0.0415703
0.0731197
0.0957792
0.110921
0.120003
0.130702
-0.0698601
-0.0580342
-0.012905
0.0303104
0.0699546
0.0976628
0.117154
0.12951
0.136436
0.145213
-0.0200728
-0.0185511
0.0247346
0.0627446
0.0986319
0.122321
0.138536
0.148043
0.152813
0.159511
0.0309559
0.0219735
0.0631165
0.0955971
0.127487
0.147003
0.159854
0.16646
0.169091
0.173527
0.0830061
0.0633464
0.10206
0.128722
0.156401
0.171616
0.181032
0.184704
0.185236
0.187195
0.135815
0.105359
0.141377
0.16197
0.185255
0.196069
0.201994
0.202722
0.201238
0.200419
0.189125
0.147802
0.180876
0.195188
0.213928
0.220268
0.222664
0.220461
0.21703
0.212966
0.242877
0.190537
0.220385
0.228231
0.242303
0.244119
0.24297
0.237857
0.232331
0.224334
0.297207
0.23349
0.259753
0.260954
0.270259
0.267533
0.262844
0.25484
0.246858
0.234106
0.35059
0.275977
0.298624
0.293164
0.297673
0.290419
0.282219
0.27136
0.261197
0.246077
0.403161
0.317935
0.336856
0.324726
0.324432
0.312691
0.301028
0.287349
0.275023
0.258402
0.454824
0.359196
0.374273
0.355493
0.35042
0.33426
0.319202
0.302757
0.288224
0.270283
0.505287
0.399517
0.410674
0.385318
0.375527
0.355044
0.336676
0.317538
0.300818
0.281585
0.554245
0.438655
0.445864
0.414056
0.399643
0.37496
0.353387
0.331643
0.312796
0.292321
0.601416
0.476381
0.479655
0.44157
0.422666
0.393932
0.369276
0.345027
0.324132
0.302474
0.646527
0.512469
0.511866
0.467724
0.444495
0.411884
0.384285
0.357647
0.334798
0.312009
0.689314
0.546705
0.542324
0.492393
0.465035
0.428747
0.398361
0.369462
0.344767
0.320899
0.729523
0.578882
0.570863
0.515456
0.484197
0.444452
0.411454
0.380436
0.354014
0.329124
0.766913
0.608804
0.597331
0.5368
0.501897
0.458939
0.423516
0.390532
0.362513
0.336664
0.801256
0.636287
0.621581
0.556321
0.518058
0.472149
0.434502
0.399717
0.370239
0.343503
0.832344
0.661164
0.643484
0.573922
0.532608
0.484029
0.444373
0.407962
0.37717
0.349624
0.859986
0.683281
0.662918
0.589518
0.545483
0.494532
0.453093
0.415239
0.383284
0.355014
0.884011
0.7025
0.679779
0.603032
0.556626
0.503614
0.460628
0.421523
0.388563
0.359658
0.904269
0.718702
0.693973
0.614396
0.565989
0.511241
0.466952
0.426793
0.392989
0.363547
0.920633
0.731786
0.705422
0.623555
0.573529
0.517379
0.47204
0.431032
0.396547
0.366671
0.933001
0.74167
0.714064
0.630463
0.579213
0.522004
0.475872
0.434223
0.399227
0.369021
0.941295
0.748293
0.719851
0.635087
0.583016
0.525098
0.478435
0.436358
0.401019
0.370591
0.945464
0.751617
0.722753
0.637404
0.584922
0.526649
0.479719
0.437427
0.401917
0.371378
0.945464
0.751617
0.722753
0.637404
0.584922
0.526649
0.479719
0.437427
0.401917
0.371378
0.941295
0.748293
0.719851
0.635087
0.583016
0.525098
0.478435
0.436358
0.401019
0.370591
0.933001
0.74167
0.714064
0.630463
0.579213
0.522004
0.475872
0.434223
0.399227
0.369021
0.920633
0.731786
0.705422
0.623555
0.573529
0.517379
0.47204
0.431032
0.396547
0.366671
0.904269
0.718702
0.693973
0.614396
0.565989
0.511241
0.466952
0.426793
0.392989
0.363547
0.884011
0.7025
0.679779
0.603032
0.556626
0.503614
0.460628
0.421523
0.388563
0.359658
0.859986
0.683281
0.662918
0.589518
0.545483
0.494532
0.453093
0.415239
0.383284
0.355014
0.832344
0.661164
0.643484
0.573922
0.532608
0.484029
0.444373
0.407962
0.37717
0.349624
0.801256
0.636287
0.621581
0.556321
0.518058
0.472149
0.434502
0.399717
0.370239
0.343503
0.766913
0.608804
0.597331
0.5368
0.501897
0.458939
0.423516
0.390532
0.362513
0.336664
0.729523
0.578882
0.570863
0.515456
0.484197
0.444452
0.411454
0.380436
0.354014
0.329124
0.689314
0.546705
0.542324
0.492393
0.465035
0.428747
0.398361
0.369462
0.344767
0.320899
0.646527
0.512469
0.511866
0.467724
0.444495
0.411884
0.384285
0.357647
0.334798
0.312009
0.601416
0.476381
0.479655
0.44157
0.422666
0.393932
0.369276
0.345027
0.324132
0.302474
0.554245
0.438655
0.445864
0.414056
0.399643
0.37496
0.353387
0.331643
0.312796
0.292321
0.505287
0.399517
0.410674
0.385318
0.375527
0.355044
0.336676
0.317538
0.300818
0.281585
0.454824
0.359196
0.374273
0.355493
0.35042
0.33426
0.319202
0.302757
0.288224
0.270283
0.403161
0.317935
0.336856
0.324726
0.324432
0.312691
0.301028
0.287349
0.275023
0.258402
0.35059
0.275977
0.298624
0.293164
0.297673
0.290419
0.282219
0.27136
0.261197
0.246077
0.297207
0.23349
0.259753
0.260954
0.270259
0.267533
0.262844
0.25484
0.246858
0.234106
0.242877
0.190537
0.220385
0.228231
0.242303
0.244119
0.24297
0.237857
0.232331
0.224334
0.189125
0.147802
0.180876
0.195188
0.213928
0.220268
0.222664
0.220461
0.21703
0.212966
0.135815
0.105359
0.141377
0.16197
0.185255
0.196069
0.201994
0.202722
0.201238
0.200419
0.0830061
0.0633464
0.10206
0.128722
0.156401
0.171616
0.181032
0.184704
0.185236
0.187195
0.0309559
0.0219735
0.0631165
0.0955971
0.127487
0.147003
0.159854
0.16646
0.169091
0.173527
-0.0200728
-0.0185511
0.0247346
0.0627446
0.0986319
0.122321
0.138536
0.148043
0.152813
0.159511
-0.0698601
-0.0580342
-0.012905
0.0303104
0.0699546
0.0976628
0.117154
0.12951
0.136436
0.145213
-0.118182
-0.0963161
-0.0496329
-0.00156435
0.0415703
0.0731197
0.0957792
0.110921
0.120003
0.130702
-0.164841
-0.133217
-0.0853085
-0.0327445
0.0135922
0.0487813
0.0744859
0.0923334
0.103562
0.116043
-0.209664
-0.168619
-0.119762
-0.063102
-0.0138703
0.024735
0.0533448
0.073805
0.0871538
0.101291
-0.252493
-0.202394
-0.152859
-0.0925178
-0.0407118
0.00106631
0.0324253
0.0553918
0.0708231
0.0864968
-0.293187
-0.23443
-0.184486
-0.120878
-0.0668318
-0.0221422
0.011795
0.0371486
0.0546124
0.0717087
-0.331628
-0.26464
-0.214536
-0.148079
-0.0921353
-0.0448112
-0.00848093
0.019129
0.0385639
0.0569719
-0.367715
-0.292952
-0.242917
-0.17403
-0.116534
-0.0668655
-0.0283387
0.00138509
0.0227187
0.0423302
-0.401373
-0.319315
-0.269555
-0.198648
-0.139945
-0.0882328
-0.0477184
-0.0160327
0.00711436
0.0278278
-0.432543
-0.343695
-0.294391
-0.221866
-0.162295
-0.108846
-0.0665623
-0.0330841
-0.00820667
0.0135077
-0.461189
-0.366076
-0.317383
-0.243626
-0.183517
-0.128641
-0.0848148
-0.0497137
-0.0231647
-0.000634323
-0.487282
-0.38645
-0.338503
-0.263883
-0.203554
-0.147562
-0.102424
-0.0658793
-0.0377792
-0.0145124
-0.51082
-0.404832
-0.357741
-0.282604
-0.222357
-0.165557
-0.119343
-0.0815393
-0.0520037
-0.0280955
-0.531939
-0.42131
-0.37513
-0.299785
-0.239892
-0.182581
-0.135525
-0.096653
-0.0657933
-0.041359
-0.550915
-0.436063
-0.390761
-0.315453
-0.256142
-0.198598
-0.150931
-0.111182
-0.0791129
-0.0542748
-0.567071
-0.448795
-0.404501
-0.329543
-0.271063
-0.213568
-0.165522
-0.125092
-0.0919289
-0.0668124
-0.580731
-0.459701
-0.416457
-0.3421
-0.284656
-0.227469
-0.179266
-0.138348
-0.104211
-0.0789471
-0.592098
-0.468921
-0.426723
-0.353173
-0.296929
-0.240283
-0.192135
-0.150924
-0.115929
-0.0906576
-0.601261
-0.476539
-0.435373
-0.362808
-0.307898
-0.252003
-0.204107
-0.16279
-0.127057
-0.101925
-0.60831
-0.482643
-0.442488
-0.371062
-0.317588
-0.262628
-0.215167
-0.173924
-0.13757
-0.112732
-0.613355
-0.48733
-0.448159
-0.378
-0.326037
-0.272165
-0.225302
-0.184306
-0.147444
-0.123065
-0.616511
-0.490703
-0.452485
-0.383699
-0.333289
-0.280631
-0.23451
-0.193917
-0.156663
-0.13291
-0.617902
-0.492864
-0.455566
-0.38824
-0.3394
-0.288052
-0.242793
-0.202744
-0.165211
-0.142253
-0.61765
-0.493917
-0.457507
-0.39171
-0.344433
-0.29446
-0.250163
-0.210777
-0.17308
-0.151077
-0.615882
-0.493965
-0.458412
-0.394198
-0.348458
-0.299897
-0.256636
-0.218008
-0.18027
-0.159358
-0.612725
-0.493107
-0.458385
-0.395797
-0.351548
-0.304411
-0.262239
-0.224434
-0.186786
-0.167058
-0.608304
-0.491442
-0.457528
-0.396598
-0.353782
-0.308055
-0.267004
-0.230052
-0.192647
-0.174115
-0.602743
-0.489062
-0.455937
-0.39669
-0.355241
-0.31089
-0.270971
-0.234865
-0.197881
-0.180436
-0.596167
-0.486055
-0.453707
-0.396161
-0.356005
-0.312979
-0.274189
-0.238875
-0.202528
-0.185877
-0.588694
-0.482507
-0.450925
-0.395095
-0.356155
-0.314388
-0.276709
-0.242089
-0.206641
-0.190215
-0.580441
-0.478495
-0.447675
-0.39357
-0.35577
-0.315186
-0.27859
-0.244517
-0.210293
-0.193156
-0.571518
-0.474091
-0.44403
-0.391656
-0.354923
-0.315442
-0.279893
-0.246175
-0.213598
-0.194448
-0.562035
-0.469363
-0.440061
-0.389422
-0.353683
-0.315223
-0.280677
-0.247079
-0.216655
-0.193562
-0.552134
-0.464405
-0.435852
-0.38694
-0.352124
-0.314602
-0.281003
-0.24727
-0.219188
-0.186813
-0.541983
-0.459337
-0.431504
-0.384291
-0.350321
-0.313654
-0.280943
-0.246903
-0.220991
-0.165956
-0.531471
-0.454045
-0.426956
-0.381453
-0.348288
-0.312424
-0.280562
-0.246201
-0.223149
-0.159065
-0.520778
-0.448647
-0.422303
-0.378497
-0.346087
-0.310979
-0.279922
-0.245394
-0.22508
-0.158786
-0.510035
-0.44322
-0.417608
-0.375473
-0.343769
-0.309372
-0.279059
-0.244551
-0.226255
-0.159406
-0.499331
-0.437809
-0.412916
-0.372416
-0.341372
-0.307648
-0.278002
-0.243673
-0.226731
-0.160088
-0.488757
-0.432459
-0.408265
-0.369357
-0.338929
-0.305844
-0.276781
-0.242768
-0.22668
-0.161148
-0.478399
-0.427214
-0.403694
-0.366328
-0.336472
-0.303994
-0.275433
-0.241854
-0.226212
-0.162647
-0.468347
-0.422118
-0.399244
-0.363356
-0.33403
-0.302129
-0.273995
-0.240946
-0.225405
-0.164492
-0.458683
-0.417214
-0.394951
-0.36047
-0.331634
-0.300277
-0.272501
-0.240055
-0.224336
-0.166605
-0.44949
-0.412543
-0.390852
-0.357698
-0.32931
-0.298464
-0.270988
-0.239193
-0.223084
-0.168923
-0.440846
-0.408144
-0.386985
-0.355066
-0.327085
-0.296715
-0.269487
-0.23837
-0.221724
-0.171377
-0.432828
-0.404056
-0.383383
-0.352602
-0.324987
-0.295055
-0.268032
-0.237595
-0.220322
-0.173893
-0.425509
-0.400314
-0.380081
-0.350331
-0.323041
-0.293507
-0.266653
-0.236878
-0.218939
-0.17639
-0.418945
-0.396958
-0.37711
-0.348278
-0.321272
-0.292093
-0.265379
-0.236225
-0.217626
-0.178789
-0.413183
-0.394029
-0.374502
-0.346467
-0.319706
-0.290836
-0.264235
-0.235646
-0.216428
-0.181011
-0.408303
-0.391537
-0.372283
-0.344921
-0.318363
-0.289754
-0.263244
-0.235149
-0.215381
-0.182984
-0.404344
-0.38951
-0.370477
-0.343659
-0.317263
-0.288865
-0.262426
-0.23474
-0.214512
-0.184644
-0.401342
-0.387971
-0.369103
-0.342697
-0.316422
-0.288185
-0.261798
-0.234427
-0.213844
-0.185938
-0.399324
-0.386936
-0.368179
-0.342048
-0.315854
-0.287724
-0.261372
-0.234215
-0.213391
-0.186824
-0.398309
-0.386416
-0.367714
-0.341721
-0.315568
-0.287492
-0.261156
-0.234108
-0.213163
-0.187274
-0.179075
-0.171231
-0.163062
-0.155223
-0.147505
-0.139931
-0.132554
-0.125393
-0.118462
-0.111776
-0.105346
-0.0991794
-0.093281
-0.0876534
-0.0822962
-0.0772073
-0.0723821
-0.0678144
-0.0634964
-0.059419
-0.055572
-0.0519445
-0.048525
-0.0453017
-0.0422626
-0.0393959
-0.0366898
-0.0341328
-0.0317141
-0.0294232
-0.0272504
-0.0251861
-0.0232223
-0.0213503
-0.0195646
-0.0178551
-0.016223
-0.0146493
-0.0131549
-0.0116878
-0.0103309
-0.00892386
-0.00774224
-0.00628949
-0.00542316
-0.00364309
-0.00351802
-0.000622473
-0.00247097
0.00379382
-0.17966
-0.171648
-0.163336
-0.155456
-0.147705
-0.140102
-0.132705
-0.125528
-0.118585
-0.111889
-0.10545
-0.099276
-0.093371
-0.0877373
-0.0823747
-0.0772807
-0.0724507
-0.0678785
-0.0635562
-0.0594747
-0.0556238
-0.0519926
-0.0485696
-0.0453429
-0.0423007
-0.0394309
-0.036722
-0.0341623
-0.0317411
-0.0294479
-0.0272728
-0.0252064
-0.0232407
-0.0213669
-0.0195795
-0.0178685
-0.0162349
-0.0146599
-0.0131643
-0.0116961
-0.0103381
-0.00893024
-0.00774757
-0.00629456
-0.00542668
-0.00364789
-0.0035191
-0.000629758
-0.00246704
0.00377485
-0.180817
-0.172477
-0.163881
-0.15592
-0.148102
-0.140444
-0.133007
-0.125799
-0.118831
-0.112114
-0.105658
-0.0994689
-0.0935507
-0.087905
-0.0825315
-0.0774273
-0.0725878
-0.0680066
-0.0636757
-0.0595861
-0.0557275
-0.0520889
-0.0486588
-0.0454255
-0.0423769
-0.0395011
-0.0367864
-0.0342214
-0.0317951
-0.0294971
-0.0273176
-0.0252471
-0.0232775
-0.0214
-0.0196093
-0.0178952
-0.0162588
-0.0146811
-0.013183
-0.0117126
-0.0103525
-0.008943
-0.00775823
-0.00630468
-0.0054337
-0.00365746
-0.00352128
-0.000644283
-0.00245922
0.0037371
-0.182518
-0.173706
-0.164694
-0.156612
-0.148696
-0.140954
-0.133457
-0.126203
-0.119197
-0.11245
-0.105969
-0.0997571
-0.0938192
-0.0881559
-0.0827661
-0.0776468
-0.0727932
-0.0681986
-0.063855
-0.0597532
-0.055883
-0.0522333
-0.0487927
-0.0455493
-0.0424912
-0.0396064
-0.0368831
-0.0343101
-0.0318762
-0.029571
-0.0273848
-0.025308
-0.0233326
-0.0214497
-0.019654
-0.0179352
-0.0162944
-0.0147128
-0.013211
-0.0117374
-0.0103741
-0.00896212
-0.00777419
-0.00631983
-0.00544423
-0.00367178
-0.00352458
-0.00066596
-0.00244761
0.00368094
-0.184718
-0.175314
-0.165767
-0.157525
-0.14948
-0.141628
-0.134052
-0.126737
-0.119682
-0.112895
-0.106379
-0.100139
-0.0941753
-0.0884888
-0.0830778
-0.0779387
-0.0730665
-0.0684542
-0.0640938
-0.0599759
-0.0560903
-0.052426
-0.0489713
-0.0457146
-0.0426437
-0.0397468
-0.0370122
-0.0344283
-0.0319843
-0.0296696
-0.0274744
-0.0253893
-0.0234061
-0.021516
-0.0197135
-0.0179885
-0.016342
-0.014755
-0.0132484
-0.0117703
-0.0104028
-0.00898756
-0.00779543
-0.00634
-0.00545826
-0.00369081
-0.00352903
-0.00069466
-0.00243237
0.00360694
-0.187353
-0.177273
-0.167084
-0.15865
-0.150448
-0.142461
-0.134786
-0.127396
-0.120281
-0.113445
-0.106888
-0.100612
-0.0946171
-0.0889024
-0.0834654
-0.0783021
-0.073407
-0.068773
-0.0643918
-0.060254
-0.0563493
-0.0526667
-0.0491946
-0.0459212
-0.0428344
-0.0399225
-0.0371735
-0.0345762
-0.0321195
-0.0297928
-0.0275864
-0.0254909
-0.0234979
-0.0215987
-0.0197878
-0.018055
-0.0164013
-0.0148077
-0.0132949
-0.0118114
-0.0104386
-0.00901927
-0.00782192
-0.00636512
-0.00547577
-0.00371449
-0.00353466
-0.000730209
-0.00241368
0.00351583
-0.190344
-0.179541
-0.168629
-0.159973
-0.151587
-0.143443
-0.135653
-0.128175
-0.12099
-0.114096
-0.107491
-0.101174
-0.0951424
-0.0893948
-0.0839275
-0.0787359
-0.0738139
-0.0691543
-0.0647486
-0.0605872
-0.0566598
-0.0529554
-0.0494624
-0.0461691
-0.0430633
-0.0401332
-0.0373672
-0.0347536
-0.0322816
-0.0299406
-0.0277208
-0.0256127
-0.023608
-0.0216978
-0.0198769
-0.0181346
-0.0164723
-0.0148708
-0.0133507
-0.0118605
-0.0104814
-0.00905719
-0.00785359
-0.00639516
-0.00549673
-0.00374275
-0.00354152
-0.000772396
-0.00239179
0.0034085
-0.193591
-0.182062
-0.170374
-0.161474
-0.152885
-0.144563
-0.136644
-0.129066
-0.121801
-0.114843
-0.108184
-0.10182
-0.0957483
-0.0899638
-0.0844625
-0.0792388
-0.0742863
-0.0695975
-0.0651636
-0.0609751
-0.0570215
-0.0532919
-0.0497748
-0.0464582
-0.0433303
-0.0403792
-0.0375931
-0.0349606
-0.0324708
-0.030113
-0.0278775
-0.0257546
-0.0237362
-0.0218133
-0.0199805
-0.0182273
-0.0165549
-0.0149441
-0.0134155
-0.0119177
-0.0105311
-0.00910126
-0.0078904
-0.00643005
-0.00552113
-0.0037755
-0.00354967
-0.000820977
-0.00236696
0.003286
-0.196981
-0.184765
-0.172282
-0.163127
-0.154319
-0.145806
-0.137746
-0.130059
-0.122707
-0.115679
-0.108962
-0.102548
-0.0964316
-0.0906069
-0.0850681
-0.0798092
-0.0748229
-0.0701015
-0.0656362
-0.0614172
-0.0574341
-0.053676
-0.0501314
-0.0467885
-0.0436353
-0.0406602
-0.0378512
-0.0351971
-0.0326869
-0.0303099
-0.0280563
-0.0259166
-0.0238825
-0.021945
-0.0200987
-0.018333
-0.016649
-0.0150276
-0.0134892
-0.0119827
-0.0105877
-0.00915138
-0.00793227
-0.00646971
-0.00554894
-0.00381264
-0.00355916
-0.000875672
-0.00233949
0.00314948
-0.200382
-0.187562
-0.174308
-0.164898
-0.155865
-0.147152
-0.138944
-0.131142
-0.123699
-0.116596
-0.109818
-0.103351
-0.0971883
-0.0913208
-0.0857421
-0.0804451
-0.0754223
-0.0706654
-0.0661654
-0.0619128
-0.0578971
-0.0541073
-0.050532
-0.0471596
-0.0439782
-0.040976
-0.0381414
-0.035463
-0.0329297
-0.0305311
-0.0282572
-0.0260985
-0.0240468
-0.0220928
-0.0202312
-0.0184514
-0.0167545
-0.0151212
-0.0135718
-0.0120554
-0.0106511
-0.00920745
-0.00797912
-0.00651407
-0.00558012
-0.00385406
-0.00357007
-0.000936174
-0.00230972
0.00300023
-0.203652
-0.190351
-0.176394
-0.166745
-0.157488
-0.148577
-0.140219
-0.132301
-0.124765
-0.117587
-0.110746
-0.104225
-0.098014
-0.0921022
-0.0864817
-0.0811445
-0.0760826
-0.0712876
-0.0667503
-0.0624611
-0.0584097
-0.0545852
-0.0509762
-0.0475713
-0.0443587
-0.0413266
-0.0384635
-0.035758
-0.0331992
-0.0307765
-0.0284801
-0.0263002
-0.0242288
-0.0222565
-0.020378
-0.0185825
-0.0168712
-0.0152246
-0.013663
-0.0121358
-0.010721
-0.00926937
-0.00803086
-0.00656301
-0.00561462
-0.00389965
-0.00358245
-0.00100215
-0.00227801
0.00283959
-0.206646
-0.193016
-0.178469
-0.168613
-0.15915
-0.150051
-0.14155
-0.133519
-0.125892
-0.118641
-0.111738
-0.105164
-0.0989039
-0.0929471
-0.0872836
-0.0819047
-0.076802
-0.0719666
-0.0673895
-0.0630612
-0.0589713
-0.0551091
-0.0514635
-0.0480232
-0.0447764
-0.0417116
-0.0388172
-0.036082
-0.0334951
-0.0310459
-0.0287246
-0.0265215
-0.0244283
-0.0224359
-0.0205387
-0.018726
-0.0169988
-0.0153377
-0.0137628
-0.0122237
-0.0107974
-0.009337
-0.00808739
-0.00661645
-0.00565241
-0.00394926
-0.00359638
-0.00107326
-0.00224472
0.002669
-0.209216
-0.195429
-0.180452
-0.170442
-0.160803
-0.151541
-0.142912
-0.134777
-0.127067
-0.119747
-0.112785
-0.10616
-0.0998528
-0.0938514
-0.0881447
-0.0827233
-0.0775782
-0.0727008
-0.0680818
-0.0637119
-0.0595809
-0.0556784
-0.0519935
-0.0485148
-0.045231
-0.0421306
-0.0392023
-0.0364347
-0.0338172
-0.0313391
-0.0289906
-0.0267621
-0.0246453
-0.0226308
-0.0207133
-0.0188817
-0.0171373
-0.0154604
-0.013871
-0.0123189
-0.0108802
-0.00941023
-0.00814861
-0.00667426
-0.00569344
-0.00400275
-0.00361192
-0.00114912
-0.00221024
0.00248991
-0.211226
-0.197463
-0.182256
-0.172163
-0.162394
-0.153008
-0.144277
-0.136056
-0.128274
-0.120893
-0.11388
-0.107207
-0.100855
-0.0948108
-0.0890614
-0.0835972
-0.0784092
-0.0734883
-0.0688257
-0.0644122
-0.0602378
-0.0562924
-0.0525654
-0.0490457
-0.0457222
-0.0425835
-0.0396184
-0.0368159
-0.0341652
-0.0316558
-0.0292779
-0.0270218
-0.0248793
-0.022841
-0.0209015
-0.0190495
-0.0172864
-0.0155924
-0.0139872
-0.0124212
-0.0109691
-0.0094889
-0.00821438
-0.00673632
-0.00573765
-0.00405996
-0.00362915
-0.00122937
-0.00217497
0.00230381
-0.212563
-0.198993
-0.183782
-0.17369
-0.163858
-0.154404
-0.145607
-0.137326
-0.129492
-0.122064
-0.115007
-0.108293
-0.101902
-0.0958174
-0.0900272
-0.0845212
-0.07929
-0.0743251
-0.0696178
-0.065159
-0.0609393
-0.0569489
-0.0531774
-0.0496142
-0.0462483
-0.0430687
-0.0400644
-0.0372244
-0.0345381
-0.0319951
-0.0295856
-0.0273
-0.0251299
-0.0230659
-0.0211027
-0.0192288
-0.0174457
-0.0157333
-0.0141113
-0.0125303
-0.0110639
-0.00957275
-0.00828452
-0.00680243
-0.00578492
-0.00412069
-0.00364812
-0.00131358
-0.00213931
0.0021122
-0.213087
-0.199854
-0.184898
-0.174917
-0.165115
-0.15567
-0.14686
-0.138555
-0.130693
-0.123237
-0.11615
-0.109405
-0.10298
-0.0968602
-0.0910323
-0.0854863
-0.0802131
-0.0752044
-0.0704518
-0.0659468
-0.0616804
-0.0576433
-0.0538254
-0.0502167
-0.0468063
-0.0435836
-0.0405378
-0.0376582
-0.0349341
-0.0323554
-0.0299123
-0.0275951
-0.0253957
-0.0233044
-0.021316
-0.0194189
-0.0176144
-0.0158825
-0.0142427
-0.0126459
-0.0111643
-0.00966148
-0.00835877
-0.00687237
-0.00583513
-0.00418472
-0.00366885
-0.00140131
-0.00210368
0.00191655
-0.212544
-0.199881
-0.185525
-0.175806
-0.166156
-0.156811
-0.148047
-0.139758
-0.131896
-0.124429
-0.117324
-0.110556
-0.104103
-0.0979511
-0.0920875
-0.0865025
-0.0811873
-0.0761341
-0.0713351
-0.0667823
-0.0624673
-0.0583812
-0.0545147
-0.0508578
-0.0474003
-0.0441319
-0.0410421
-0.0381202
-0.0353559
-0.0327391
-0.0302601
-0.0279094
-0.0256786
-0.0235582
-0.0215428
-0.0196209
-0.0177937
-0.0160409
-0.0143821
-0.0127684
-0.0112707
-0.00975554
-0.0084375
-0.00694641
-0.00588853
-0.00425215
-0.00369155
-0.00149242
-0.00206837
0.00171807
-0.211208
-0.199328
-0.185813
-0.176443
-0.167054
-0.1579
-0.149241
-0.141008
-0.133172
-0.12571
-0.118597
-0.111811
-0.105333
-0.0991491
-0.0932488
-0.0876225
-0.0822623
-0.077161
-0.0723114
-0.0677062
-0.0633377
-0.0591977
-0.0552771
-0.0515669
-0.0480571
-0.0447379
-0.0415989
-0.0386299
-0.0358208
-0.0331616
-0.0306426
-0.0282544
-0.0259887
-0.0238359
-0.0217906
-0.0198412
-0.0179888
-0.0162131
-0.0145333
-0.012901
-0.0113856
-0.00985698
-0.00852232
-0.00702587
-0.00594607
-0.00432379
-0.00371669
-0.00158734
-0.00203332
0.00151762
-0.210588
-0.198101
-0.185184
-0.176157
-0.167191
-0.158404
-0.149998
-0.141936
-0.134215
-0.126827
-0.119759
-0.112995
-0.106523
-0.100333
-0.0944151
-0.0887627
-0.0833691
-0.0782282
-0.073334
-0.0686804
-0.0642605
-0.060067
-0.056092
-0.0523268
-0.0487625
-0.0453895
-0.0421983
-0.0391788
-0.0363213
-0.0336161
-0.0310537
-0.0286248
-0.026321
-0.024133
-0.0220551
-0.0200757
-0.018196
-0.0163955
-0.014693
-0.0130409
-0.0115065
-0.00996341
-0.00861118
-0.00710889
-0.00600636
-0.00439818
-0.00374365
-0.00168483
-0.00199909
0.00131735
-0.204993
-0.192852
-0.181578
-0.173297
-0.16512
-0.157011
-0.149116
-0.141442
-0.134015
-0.12685
-0.119952
-0.113318
-0.106944
-0.100827
-0.0949628
-0.0893465
-0.0839748
-0.0788441
-0.0739502
-0.0692886
-0.0648541
-0.0606405
-0.0566413
-0.0528487
-0.0492548
-0.0458509
-0.042628
-0.0395768
-0.036688
-0.0339522
-0.0313603
-0.0289032
-0.0265728
-0.0243596
-0.0222583
-0.0202572
-0.0183574
-0.0165386
-0.0148194
-0.0131523
-0.0116038
-0.01005
-0.00868418
-0.0071786
-0.0060573
-0.00446376
-0.0037677
-0.00177489
-0.00197091
0.00112497
-0.177485
-0.189493
-0.181206
-0.173221
-0.165192
-0.157108
-0.149199
-0.141501
-0.134049
-0.126861
-0.119942
-0.11329
-0.106903
-0.100775
-0.0949013
-0.0892791
-0.083904
-0.078772
-0.0738788
-0.0692195
-0.0647887
-0.06058
-0.0565864
-0.0528003
-0.0492132
-0.0458162
-0.0426003
-0.0395559
-0.0366737
-0.033944
-0.0313578
-0.0289057
-0.0265798
-0.0243705
-0.0222726
-0.020274
-0.0183765
-0.0165591
-0.0148412
-0.0131749
-0.0116265
-0.0100737
-0.00870619
-0.00720438
-0.00607617
-0.00449651
-0.00377832
-0.00182949
-0.00195883
0.000985994
-0.16688
-0.184558
-0.177747
-0.170607
-0.163202
-0.155539
-0.147951
-0.140507
-0.133261
-0.126241
-0.119461
-0.112924
-0.106633
-0.100585
-0.0947793
-0.0892132
-0.0838845
-0.0787904
-0.0739278
-0.0692927
-0.0648806
-0.0606858
-0.056702
-0.0529221
-0.0493383
-0.0459423
-0.0427252
-0.0396781
-0.0367918
-0.0340571
-0.0314653
-0.029007
-0.0266746
-0.0244587
-0.0223542
-0.0203491
-0.0184452
-0.0166218
-0.0148979
-0.0132265
-0.0116723
-0.0101161
-0.00874202
-0.0072408
-0.00610174
-0.00453337
-0.00378981
-0.00188225
-0.00194153
0.000871787
-0.162808
-0.179269
-0.173361
-0.167081
-0.160392
-0.153267
-0.146107
-0.139011
-0.132051
-0.125269
-0.118688
-0.112319
-0.106169
-0.100241
-0.0945365
-0.0890556
-0.0837981
-0.078763
-0.0739486
-0.0693523
-0.0649704
-0.0607987
-0.0568316
-0.0530631
-0.049486
-0.0460928
-0.0428755
-0.0398256
-0.0369345
-0.0341935
-0.0315943
-0.0291279
-0.0267871
-0.0245624
-0.0224492
-0.0204358
-0.0185236
-0.0166927
-0.0149612
-0.0132837
-0.0117224
-0.0101626
-0.00878031
-0.00728069
-0.00612816
-0.00457442
-0.00379973
-0.00194247
-0.00191682
0.000746506
-0.159917
-0.174227
-0.169196
-0.163592
-0.157539
-0.150929
-0.144189
-0.137441
-0.130771
-0.124232
-0.117855
-0.111659
-0.105656
-0.0998532
-0.0942546
-0.0888634
-0.0836813
-0.078709
-0.0739462
-0.0693917
-0.065043
-0.0608969
-0.0569488
-0.0531935
-0.0496249
-0.0462361
-0.0430199
-0.0399682
-0.0370733
-0.0343268
-0.0317209
-0.0292469
-0.026898
-0.024665
-0.0225434
-0.0205218
-0.0186016
-0.0167633
-0.0150244
-0.013341
-0.0117725
-0.0102094
-0.00881879
-0.00732135
-0.00615478
-0.00461693
-0.00380949
-0.00200551
-0.00189052
0.000615115
-0.157319
-0.169303
-0.165148
-0.160104
-0.154625
-0.148515
-0.142193
-0.135799
-0.129426
-0.123138
-0.116973
-0.110958
-0.105109
-0.0994369
-0.0939496
-0.0886527
-0.0835499
-0.0786438
-0.0739356
-0.0694253
-0.0651119
-0.0609931
-0.0570654
-0.0533246
-0.0497654
-0.0463818
-0.0431671
-0.0401142
-0.0372157
-0.0344639
-0.0318513
-0.0293698
-0.0270127
-0.0247713
-0.0226412
-0.0206112
-0.0186828
-0.016837
-0.0150904
-0.0134009
-0.011825
-0.0102586
-0.00885922
-0.0073641
-0.00618289
-0.00466158
-0.0038201
-0.00207135
-0.00186365
0.000477969
-0.154851
-0.164429
-0.16106
-0.156518
-0.151573
-0.14596
-0.140064
-0.134036
-0.127976
-0.121954
-0.116016
-0.110195
-0.104511
-0.0989803
-0.0936132
-0.0884181
-0.0834012
-0.0785667
-0.0739176
-0.0694555
-0.0651804
-0.0610913
-0.0571861
-0.0534613
-0.0499126
-0.0465348
-0.0433222
-0.0402683
-0.0373663
-0.034609
-0.0319895
-0.0295001
-0.0271344
-0.0248842