/*--------------------------------*- C++ -*----------------------------------*\
  =========                 |
  \\      /  F ield         | OpenFOAM: The Open Source CFD Toolbox
   \\    /   O peration     | Website:  https://openfoam.org
    \\  /    A nd           | Version:  7
     \\/     M anipulation  |
\*---------------------------------------------------------------------------*/
FoamFile
{
    version     2.0;
    format      ascii;
    class       volScalarField;
    location    "20";
    object      p;
}
// * * * * * * * * * * * * * * * * * * * * * * * * * * * * * * * * * * * * * //

dimensions      [0 2 -2 0 0 0 0];

internalField   nonuniform List<scalar> 
42000
(
-0.400581
-0.400181
-0.39029
-0.376204
-0.359868
-0.340652
-0.320916
-0.299906
-0.279015
-0.257894
-0.237374
-0.217125
-0.198071
-0.179168
-0.162612
-0.144816
-0.132311
-0.11414
-0.108335
-0.0877834
-0.400858
-0.400347
-0.390445
-0.376313
-0.359967
-0.340731
-0.320988
-0.29997
-0.279075
-0.257949
-0.237428
-0.217176
-0.198122
-0.179216
-0.162664
-0.144855
-0.132376
-0.114144
-0.108471
-0.0876143
-0.401411
-0.400678
-0.390754
-0.37653
-0.360163
-0.340888
-0.321132
-0.300097
-0.279194
-0.258061
-0.237535
-0.217279
-0.198224
-0.179312
-0.162767
-0.144935
-0.132506
-0.114151
-0.108742
-0.0872804
-0.402239
-0.401174
-0.391216
-0.376856
-0.360457
-0.341124
-0.321347
-0.300286
-0.279372
-0.258227
-0.237695
-0.217432
-0.198376
-0.179455
-0.162922
-0.145054
-0.132699
-0.114164
-0.109141
-0.08679
-0.403341
-0.401834
-0.391831
-0.377288
-0.360848
-0.341437
-0.321633
-0.300538
-0.279608
-0.258447
-0.237907
-0.217635
-0.198578
-0.179644
-0.163127
-0.145212
-0.132954
-0.114184
-0.109661
-0.0861553
-0.404712
-0.402655
-0.392597
-0.377826
-0.361334
-0.341827
-0.321988
-0.300851
-0.279901
-0.25872
-0.23817
-0.217887
-0.198827
-0.179878
-0.16338
-0.145408
-0.133267
-0.114212
-0.110294
-0.085392
-0.40635
-0.403636
-0.393511
-0.378468
-0.361913
-0.342291
-0.322411
-0.301223
-0.280249
-0.259045
-0.238482
-0.218186
-0.199123
-0.180157
-0.16368
-0.145642
-0.133634
-0.114252
-0.111028
-0.0845193
-0.408252
-0.404775
-0.394572
-0.379213
-0.362585
-0.342828
-0.3229
-0.301654
-0.280652
-0.25942
-0.238842
-0.218531
-0.199464
-0.180478
-0.164024
-0.145913
-0.134053
-0.114306
-0.11185
-0.083559
-0.410411
-0.406068
-0.395777
-0.380058
-0.363347
-0.343437
-0.323454
-0.30214
-0.281106
-0.259844
-0.239249
-0.218919
-0.199847
-0.18084
-0.16441
-0.14622
-0.134518
-0.114378
-0.112744
-0.0825353
-0.412824
-0.407514
-0.397122
-0.381001
-0.364197
-0.344115
-0.32407
-0.302681
-0.281611
-0.260313
-0.239698
-0.219349
-0.200271
-0.18124
-0.164835
-0.146561
-0.135025
-0.11447
-0.113697
-0.081474
-0.415484
-0.409107
-0.398605
-0.38204
-0.365132
-0.34486
-0.324747
-0.303273
-0.282164
-0.260826
-0.24019
-0.219818
-0.200733
-0.181677
-0.165296
-0.146934
-0.135566
-0.114587
-0.11469
-0.080402
-0.418386
-0.410845
-0.400222
-0.383171
-0.366149
-0.345669
-0.325481
-0.303916
-0.282762
-0.261381
-0.24072
-0.220324
-0.20123
-0.182146
-0.165789
-0.147339
-0.136138
-0.114729
-0.115709
-0.0793464
-0.421521
-0.412724
-0.401969
-0.384392
-0.367246
-0.346541
-0.32627
-0.304605
-0.283402
-0.261974
-0.241286
-0.220863
-0.201758
-0.182646
-0.16631
-0.147771
-0.136732
-0.114902
-0.116735
-0.0783343
-0.424888
-0.414736
-0.403842
-0.385699
-0.36842
-0.347472
-0.327113
-0.305339
-0.284083
-0.262603
-0.241885
-0.221433
-0.202314
-0.183174
-0.166855
-0.14823
-0.137343
-0.115106
-0.117754
-0.0773914
-0.428481
-0.416873
-0.405836
-0.387089
-0.369667
-0.348459
-0.328004
-0.306114
-0.284802
-0.263265
-0.242514
-0.22203
-0.202895
-0.183724
-0.167419
-0.148711
-0.137964
-0.115343
-0.118748
-0.076542
-0.432265
-0.419154
-0.407946
-0.38856
-0.370985
-0.3495
-0.328943
-0.306928
-0.285554
-0.263957
-0.243169
-0.222651
-0.203496
-0.184294
-0.167998
-0.149211
-0.138587
-0.115615
-0.119704
-0.0758079
-0.436257
-0.421552
-0.410169
-0.390106
-0.372369
-0.350591
-0.329925
-0.307778
-0.286337
-0.264676
-0.243847
-0.223292
-0.204114
-0.184879
-0.168586
-0.149727
-0.139206
-0.11592
-0.120606
-0.0752081
-0.440447
-0.424064
-0.412498
-0.391725
-0.373816
-0.351729
-0.330948
-0.30866
-0.287149
-0.265417
-0.244544
-0.223948
-0.204743
-0.185475
-0.169178
-0.150253
-0.139813
-0.116258
-0.121443
-0.0747578
-0.444821
-0.426686
-0.414929
-0.393413
-0.375323
-0.352912
-0.332008
-0.309572
-0.287984
-0.266178
-0.245256
-0.224616
-0.20538
-0.186076
-0.169768
-0.150785
-0.1404
-0.116626
-0.122203
-0.0744689
-0.44937
-0.429414
-0.417456
-0.395165
-0.376885
-0.354136
-0.333103
-0.310511
-0.288841
-0.266955
-0.24598
-0.225291
-0.206018
-0.186678
-0.170349
-0.151317
-0.140961
-0.117022
-0.122876
-0.0743486
-0.454085
-0.432242
-0.420074
-0.396978
-0.3785
-0.355398
-0.334229
-0.311472
-0.289716
-0.267744
-0.24671
-0.225969
-0.206653
-0.187275
-0.170916
-0.151845
-0.141489
-0.117442
-0.123454
-0.0744002
-0.458955
-0.435162
-0.422778
-0.398848
-0.380164
-0.356694
-0.335382
-0.312454
-0.290605
-0.26854
-0.247443
-0.226644
-0.207279
-0.18786
-0.171463
-0.15236
-0.141977
-0.117879
-0.123929
-0.0746225
-0.463971
-0.43817
-0.425561
-0.400771
-0.381872
-0.358022
-0.336561
-0.313452
-0.291503
-0.269341
-0.248173
-0.227311
-0.20789
-0.188428
-0.171982
-0.152857
-0.142418
-0.118329
-0.124298
-0.0750103
-0.46912
-0.44126
-0.428418
-0.402742
-0.383621
-0.359378
-0.33776
-0.314463
-0.292409
-0.270142
-0.248896
-0.227964
-0.208481
-0.188973
-0.172466
-0.15333
-0.142805
-0.118784
-0.124555
-0.0755544
-0.474395
-0.444423
-0.431344
-0.404758
-0.385407
-0.360758
-0.338978
-0.315483
-0.293317
-0.270937
-0.249607
-0.228599
-0.209045
-0.189487
-0.17291
-0.15377
-0.143132
-0.119238
-0.1247
-0.0762422
-0.479782
-0.447656
-0.434331
-0.406815
-0.387227
-0.362161
-0.34021
-0.31651
-0.294224
-0.271724
-0.250301
-0.22921
-0.209576
-0.189964
-0.173305
-0.15417
-0.143394
-0.119681
-0.12473
-0.0770579
-0.485272
-0.45095
-0.437375
-0.408908
-0.389076
-0.363581
-0.341453
-0.317539
-0.295125
-0.272496
-0.250972
-0.229789
-0.210067
-0.190396
-0.173646
-0.154524
-0.143584
-0.120107
-0.124647
-0.0779835
-0.490853
-0.454299
-0.440469
-0.411033
-0.390951
-0.365017
-0.342704
-0.318566
-0.296015
-0.273249
-0.251614
-0.230331
-0.210511
-0.190777
-0.173924
-0.154824
-0.143698
-0.120507
-0.12445
-0.0789991
-0.496514
-0.457696
-0.443606
-0.413186
-0.392848
-0.366464
-0.343958
-0.319588
-0.296892
-0.273977
-0.252222
-0.23083
-0.210902
-0.191099
-0.174134
-0.155061
-0.14373
-0.120871
-0.124143
-0.0800833
-0.502245
-0.461135
-0.446782
-0.415363
-0.394763
-0.367919
-0.345213
-0.320601
-0.297749
-0.274676
-0.252789
-0.231278
-0.211232
-0.191355
-0.174268
-0.15523
-0.143676
-0.121193
-0.123727
-0.0812146
-0.508033
-0.464608
-0.44999
-0.417559
-0.396691
-0.369378
-0.346464
-0.321599
-0.298582
-0.275339
-0.253309
-0.231669
-0.211494
-0.191538
-0.17432
-0.155323
-0.143532
-0.121464
-0.123205
-0.0823711
-0.513867
-0.468109
-0.453222
-0.41977
-0.398629
-0.370838
-0.347707
-0.32258
-0.299385
-0.275962
-0.253776
-0.231995
-0.211682
-0.191639
-0.174284
-0.155333
-0.143293
-0.121677
-0.12258
-0.0835317
-0.519736
-0.47163
-0.456474
-0.421992
-0.400572
-0.372294
-0.348938
-0.323537
-0.300154
-0.276537
-0.254184
-0.232251
-0.211789
-0.191654
-0.174154
-0.155254
-0.142958
-0.121823
-0.121854
-0.0846762
-0.525628
-0.475165
-0.459737
-0.424219
-0.402516
-0.373744
-0.350153
-0.324467
-0.300882
-0.277058
-0.254524
-0.232428
-0.211807
-0.191574
-0.173923
-0.15508
-0.142521
-0.121897
-0.121028
-0.0857872
-0.531531
-0.478705
-0.463007
-0.426448
-0.404457
-0.375182
-0.351346
-0.325363
-0.301564
-0.277519
-0.254791
-0.23252
-0.211729
-0.191392
-0.173588
-0.154804
-0.141982
-0.121892
-0.120104
-0.0868528
-0.537433
-0.482244
-0.466275
-0.428673
-0.406389
-0.376604
-0.352513
-0.326221
-0.302194
-0.277913
-0.254977
-0.232519
-0.21155
-0.191104
-0.173143
-0.154422
-0.141339
-0.121803
-0.119082
-0.0878636
-0.543323
-0.485773
-0.469536
-0.43089
-0.408308
-0.378006
-0.353649
-0.327035
-0.302764
-0.278234
-0.255075
-0.232419
-0.211262
-0.190701
-0.172583
-0.153929
-0.140588
-0.121624
-0.117956
-0.0887926
-0.549187
-0.489285
-0.472781
-0.433092
-0.410209
-0.379382
-0.354748
-0.327798
-0.303269
-0.278474
-0.255079
-0.232212
-0.210859
-0.19018
-0.171904
-0.153319
-0.139731
-0.121353
-0.116714
-0.0896004
-0.555014
-0.492772
-0.476004
-0.435275
-0.412086
-0.380727
-0.355805
-0.328505
-0.303702
-0.278625
-0.25498
-0.231891
-0.210336
-0.189535
-0.171103
-0.152589
-0.138765
-0.120984
-0.115339
-0.0904356
-0.560793
-0.496227
-0.479198
-0.437434
-0.413934
-0.382036
-0.356812
-0.329148
-0.304054
-0.278682
-0.254772
-0.231451
-0.209686
-0.18876
-0.170177
-0.151736
-0.137693
-0.120509
-0.113853
-0.0919622
-0.566512
-0.499644
-0.482357
-0.439564
-0.415748
-0.383304
-0.357765
-0.329722
-0.30432
-0.278635
-0.254448
-0.230884
-0.208905
-0.187852
-0.169122
-0.150754
-0.136514
-0.119909
-0.112351
-0.0946246
-0.572153
-0.503008
-0.485469
-0.441655
-0.417519
-0.384522
-0.358655
-0.330217
-0.304491
-0.278478
-0.254
-0.230185
-0.207988
-0.186807
-0.167937
-0.149643
-0.135228
-0.119171
-0.110809
-0.0956964
-0.577704
-0.506313
-0.488526
-0.443701
-0.419241
-0.385685
-0.359475
-0.330627
-0.304559
-0.278204
-0.253422
-0.229348
-0.20693
-0.185621
-0.166619
-0.148399
-0.133835
-0.118285
-0.109258
-0.0959991
-0.583154
-0.509551
-0.491522
-0.445698
-0.420908
-0.386786
-0.360218
-0.330944
-0.304517
-0.277803
-0.252707
-0.228367
-0.205727
-0.184292
-0.165166
-0.14702
-0.132334
-0.117248
-0.107696
-0.0959465
-0.58849
-0.512712
-0.494447
-0.447637
-0.422512
-0.387816
-0.360875
-0.331159
-0.304356
-0.27727
-0.251848
-0.227237
-0.204375
-0.182816
-0.163577
-0.145506
-0.130724
-0.116062
-0.106108
-0.0955934
-0.593696
-0.515788
-0.497293
-0.449511
-0.424045
-0.38877
-0.361439
-0.331265
-0.304068
-0.276597
-0.250841
-0.225954
-0.202871
-0.181193
-0.161852
-0.143856
-0.129004
-0.114728
-0.104482
-0.0949607
-0.59876
-0.518768
-0.50005
-0.451312
-0.425499
-0.389637
-0.361901
-0.331253
-0.303646
-0.275776
-0.249678
-0.224512
-0.201213
-0.179419
-0.159988
-0.142069
-0.127174
-0.113249
-0.102805
-0.0940814
-0.603667
-0.521643
-0.502709
-0.453032
-0.426865
-0.39041
-0.362252
-0.331114
-0.303081
-0.274801
-0.248354
-0.222909
-0.199398
-0.177495
-0.157986
-0.140146
-0.12523
-0.111625
-0.101067
-0.0929842
-0.608402
-0.524403
-0.505259
-0.454663
-0.428135
-0.391079
-0.362482
-0.330838
-0.302364
-0.273664
-0.246864
-0.221141
-0.197424
-0.175419
-0.155846
-0.138086
-0.123174
-0.109861
-0.0992578
-0.0916911
-0.612951
-0.527036
-0.507691
-0.456194
-0.429298
-0.391635
-0.362582
-0.330418
-0.301488
-0.27236
-0.245204
-0.219205
-0.19529
-0.173192
-0.153567
-0.135891
-0.121003
-0.107958
-0.0973683
-0.0902191
-0.617299
-0.529533
-0.509993
-0.457617
-0.430345
-0.392069
-0.362543
-0.329844
-0.300445
-0.270882
-0.243368
-0.217097
-0.192994
-0.170812
-0.15115
-0.133561
-0.118716
-0.105919
-0.0953902
-0.0885814
-0.621431
-0.531882
-0.512155
-0.458922
-0.431266
-0.392369
-0.362354
-0.329107
-0.299227
-0.269224
-0.241353
-0.214817
-0.190535
-0.16828
-0.148595
-0.131097
-0.116312
-0.103747
-0.0933164
-0.086788
-0.625331
-0.534072
-0.514166
-0.460098
-0.432049
-0.392527
-0.362005
-0.328197
-0.297827
-0.26738
-0.239155
-0.212362
-0.187914
-0.165597
-0.145902
-0.1285
-0.113792
-0.101442
-0.0911409
-0.0848466
-0.628983
-0.536092
-0.516013
-0.461135
-0.432685
-0.39253
-0.361485
-0.327107
-0.296237
-0.265345
-0.236771
-0.20973
-0.18513
-0.162763
-0.143073
-0.125772
-0.111153
-0.0990079
-0.0888586
-0.0827631
-0.632372
-0.537929
-0.517684
-0.462021
-0.433161
-0.392369
-0.360786
-0.325826
-0.29445
-0.263114
-0.234198
-0.206922
-0.182183
-0.15978
-0.140108
-0.122912
-0.108397
-0.0964452
-0.0864652
-0.0805417
-0.635481
-0.539571
-0.519167
-0.462746
-0.433465
-0.392032
-0.359896
-0.324347
-0.29246
-0.260684
-0.231435
-0.203935
-0.179075
-0.156648
-0.137009
-0.119924
-0.105522
-0.0937559
-0.0839573
-0.0781854
-0.638293
-0.541006
-0.52045
-0.463298
-0.433587
-0.391508
-0.358805
-0.322661
-0.29026
-0.258049
-0.228478
-0.200771
-0.175804
-0.153369
-0.133776
-0.116808
-0.10253
-0.0909413
-0.0813321
-0.0756965
-0.640793
-0.542221
-0.521519
-0.463664
-0.433512
-0.390785
-0.357502
-0.320759
-0.287844
-0.255206
-0.225327
-0.197429
-0.172374
-0.149944
-0.130412
-0.113566
-0.0994192
-0.0880029
-0.0785875
-0.0730764
-0.642963
-0.543203
-0.522361
-0.463832
-0.43323
-0.389852
-0.355979
-0.318634
-0.285207
-0.252153
-0.22198
-0.193909
-0.168784
-0.146375
-0.126916
-0.110199
-0.0961913
-0.084942
-0.075722
-0.0703262
-0.644787
-0.54394
-0.522963
-0.46379
-0.432728
-0.388698
-0.354224
-0.316277
-0.282343
-0.248886
-0.218437
-0.190213
-0.165036
-0.142663
-0.123292
-0.106709
-0.0928467
-0.08176
-0.0727344
-0.0674468
-0.646247
-0.544417
-0.52331
-0.463525
-0.431992
-0.38731
-0.352228
-0.313683
-0.279248
-0.245404
-0.214698
-0.18634
-0.161133
-0.138812
-0.11954
-0.103098
-0.0893863
-0.0784582
-0.0696242
-0.0644386
-0.647327
-0.544621
-0.523389
-0.463023
-0.431011
-0.385679
-0.349982
-0.310843
-0.275918
-0.241704
-0.210762
-0.182294
-0.157075
-0.134822
-0.115663
-0.0993666
-0.0858112
-0.0750382
-0.0663913
-0.0613021
-0.648009
-0.544539
-0.523186
-0.462272
-0.42977
-0.383793
-0.347476
-0.307752
-0.272349
-0.237786
-0.20663
-0.178074
-0.152865
-0.130696
-0.111662
-0.095518
-0.0821226
-0.0715014
-0.063036
-0.0580379
-0.648276
-0.544156
-0.522686
-0.461257
-0.428258
-0.38164
-0.344703
-0.304404
-0.268537
-0.233647
-0.202303
-0.173683
-0.148504
-0.126436
-0.107539
-0.0915537
-0.078322
-0.0678496
-0.059559
-0.0546465
-0.648112
-0.54346
-0.521875
-0.459967
-0.426463
-0.37921
-0.341653
-0.300792
-0.264481
-0.229289
-0.197781
-0.169123
-0.143996
-0.122044
-0.103297
-0.0874758
-0.0744112
-0.0640845
-0.0559615
-0.0511287
-0.647499
-0.542435
-0.520738
-0.458388
-0.42437
-0.376493
-0.338318
-0.296913
-0.260177
-0.22471
-0.193067
-0.164395
-0.139343
-0.117523
-0.0989374
-0.0832865
-0.070392
-0.060208
-0.0522452
-0.0474853
-0.64642
-0.541068
-0.519261
-0.456505
-0.421968
-0.373479
-0.334692
-0.292762
-0.255625
-0.219912
-0.188161
-0.159503
-0.134546
-0.112875
-0.094463
-0.0789883
-0.0662667
-0.0562224
-0.0484121
-0.0437177
-0.64486
-0.539345
-0.517431
-0.454307
-0.419246
-0.370157
-0.330767
-0.288335
-0.250822
-0.214894
-0.183066
-0.154448
-0.129609
-0.108104
-0.0898761
-0.0745834
-0.0620375
-0.0521299
-0.0444647
-0.0398272
-0.6428
-0.537253
-0.515231
-0.45178
-0.416191
-0.36652
-0.326538
-0.283628
-0.245768
-0.209658
-0.177784
-0.149233
-0.124534
-0.103211
-0.0851793
-0.0700746
-0.057707
-0.0479332
-0.0404058
-0.0358157
-0.640226
-0.534776
-0.512649
-0.448911
-0.412791
-0.362557
-0.321997
-0.27864
-0.240463
-0.204205
-0.172317
-0.143861
-0.119324
-0.0981991
-0.0803753
-0.0654645
-0.0532779
-0.0436351
-0.0362388
-0.0316855
-0.637122
-0.531903
-0.509671
-0.445688
-0.409037
-0.358261
-0.317141
-0.273367
-0.234907
-0.198538
-0.166667
-0.138336
-0.113983
-0.0930717
-0.0754669
-0.060756
-0.0487533
-0.0392386
-0.0319674
-0.0274389
-0.633472
-0.528619
-0.506282
-0.442098
-0.404917
-0.353625
-0.311965
-0.267808
-0.229101
-0.192657
-0.160839
-0.132659
-0.108512
-0.0878317
-0.0704569
-0.0559521
-0.0441362
-0.034747
-0.0275958
-0.0230792
-0.629262
-0.524912
-0.502469
-0.438129
-0.400421
-0.34864
-0.306465
-0.261963
-0.223045
-0.186567
-0.154833
-0.126834
-0.102916
-0.0824819
-0.0653484
-0.051056
-0.0394301
-0.0301638
-0.0231284
-0.0186095
-0.624477
-0.520768
-0.498221
-0.433771
-0.395541
-0.343302
-0.300637
-0.25583
-0.216741
-0.180268
-0.148655
-0.120865
-0.0971974
-0.0770256
-0.0601445
-0.0460708
-0.0346385
-0.0254927
-0.0185703
-0.014034
-0.619103
-0.516175
-0.493523
-0.429011
-0.390267
-0.337604
-0.294479
-0.24941
-0.210192
-0.173765
-0.142307
-0.114755
-0.0913595
-0.071466
-0.0548484
-0.041
-0.029765
-0.0207377
-0.0139264
-0.00935671
-0.613127
-0.511121
-0.488364
-0.42384
-0.384591
-0.331542
-0.287989
-0.242704
-0.203399
-0.16706
-0.135792
-0.108508
-0.0854058
-0.0658065
-0.0494635
-0.0358471
-0.0248135
-0.0159031
-0.00920248
-0.00458255
-0.606537
-0.505594
-0.482732
-0.418249
-0.378506
-0.32511
-0.281167
-0.235712
-0.196365
-0.160158
-0.129115
-0.102126
-0.0793396
-0.0600503
-0.0439932
-0.0306158
-0.0197881
-0.0109933
-0.00440414
0.000283317
-0.599321
-0.499584
-0.476617
-0.412226
-0.372006
-0.318307
-0.274011
-0.228437
-0.189094
-0.153061
-0.12228
-0.0956143
-0.0731648
-0.0542011
-0.0384411
-0.0253097
-0.0146928
-0.00601288
0.000462597
0.00523524
-0.591468
-0.493079
-0.470007
-0.405765
-0.365084
-0.311128
-0.266521
-0.22088
-0.181589
-0.145774
-0.115289
-0.0889762
-0.0668847
-0.0482624
-0.0328106
-0.0199328
-0.00953191
-0.000966636
0.00539163
0.0102672
-0.58297
-0.486071
-0.462896
-0.398858
-0.357736
-0.303573
-0.258699
-0.213046
-0.173854
-0.138301
-0.108148
-0.0822157
-0.0605032
-0.0422378
-0.0271055
-0.0144889
-0.00430967
0.00414051
0.0103768
0.0153727
-0.573821
-0.478555
-0.455277
-0.391501
-0.34996
-0.295641
-0.250548
-0.204937
-0.165893
-0.130647
-0.100861
-0.0753367
-0.0540239
-0.0361308
-0.0213295
-0.00898197
0.000969555
0.00930353
0.0154116
0.0205452
-0.564002
-0.470512
-0.447133
-0.383681
-0.341748
-0.287329
-0.242066
-0.196555
-0.15771
-0.122816
-0.0934325
-0.0683435
-0.047451
-0.0299456
-0.0154865
-0.00341634
0.00630109
0.0145172
0.0204891
0.0257777
-0.55351
-0.461937
-0.438462
-0.375395
-0.333098
-0.278639
-0.233258
-0.187906
-0.149311
-0.114813
-0.0858665
-0.0612403
-0.0407883
-0.0236859
-0.0095805
0.00220391
0.0116805
0.0197766
0.0256025
0.0310629
-0.54234
-0.452827
-0.429257
-0.36664
-0.324011
-0.269572
-0.224127
-0.178995
-0.1407
-0.106643
-0.078168
-0.0540315
-0.0340399
-0.0173557
-0.00361533
0.00787465
0.0171032
0.025076
0.0307478
0.0363919
-0.530489
-0.443174
-0.419514
-0.357413
-0.314485
-0.260131
-0.214679
-0.169827
-0.131884
-0.0983108
-0.0703419
-0.0467214
-0.0272099
-0.010959
0.00240499
0.0135917
0.0225646
0.0304088
0.0359183
0.0417578
-0.51795
-0.432974
-0.409229
-0.347711
-0.304522
-0.250318
-0.204916
-0.160407
-0.122867
-0.0898229
-0.0623931
-0.0393145
-0.0203025
-0.00449965
0.00847642
0.0193504
0.0280605
0.0357707
0.0411071
0.0471527
-0.504723
-0.422221
-0.398398
-0.337532
-0.294123
-0.240138
-0.194846
-0.150742
-0.113656
-0.0811844
-0.0543265
-0.0318154
-0.0133218
0.00201816
0.0145949
0.0251467
0.0335862
0.0411564
0.0463084
0.0525685
-0.490805
-0.410914
-0.387019
-0.326877
-0.283289
-0.229593
-0.184473
-0.140838
-0.104258
-0.0724009
-0.0461475
-0.0242287
-0.00627222
0.00859018
0.0207564
0.0309763
0.0391372
0.0465605
0.0515167
0.0579972
-0.476197
-0.399049
-0.375091
-0.315745
-0.272025
-0.218691
-0.173805
-0.130701
-0.0946781
-0.0634785
-0.0378612
-0.0165592
0.000841862
0.0152124
0.0269568
0.036835
0.0447089
0.0519777
0.0567265
0.0634306
-0.460899
-0.386626
-0.362615
-0.304139
-0.260334
-0.207436
-0.162848
-0.12034
-0.0849239
-0.0544231
-0.0294729
-0.00881161
0.00801604
0.0218805
0.0331919
0.0427186
0.0502971
0.0574029
0.0619327
0.0688606
-0.444915
-0.373646
-0.349592
-0.292062
-0.248221
-0.195836
-0.15161
-0.10976
-0.0750021
-0.045241
-0.0209881
-0.000991172
0.015246
0.0285904
0.0394578
0.0486227
0.0558975
0.0628308
0.0671304
0.0742794
-0.428248
-0.360108
-0.336024
-0.279517
-0.235694
-0.183898
-0.140099
-0.0989714
-0.06492
-0.0359384
-0.0124128
0.00689783
0.0225271
0.0353379
0.0457501
0.0545433
0.0615059
0.0682566
0.0723151
0.079679
-0.410904
-0.346016
-0.321916
-0.266508
-0.222759
-0.17163
-0.128324
-0.0879811
-0.0546851
-0.0265221
-0.00375223
0.01485
0.0298549
0.0421185
0.052065
0.0604762
0.0671181
0.0736755
0.0774825
0.085052
-0.392888
-0.331373
-0.307272
-0.253044
-0.209424
-0.159041
-0.116294
-0.0767978
-0.0443049
-0.0169985
0.00498784
0.0228601
0.0372246
0.0489281
0.0583982
0.0664173
0.0727302
0.0790829
0.0826287
0.0903909
-0.374211
-0.316184
-0.292098
-0.239129
-0.195699
-0.146141
-0.104019
-0.0654304
-0.0337874
-0.00737442
0.0138014
0.0309233
0.0446317
0.0557623
0.0647457
0.0723627
0.0783383
0.0844743
0.08775
0.0956887
-0.35488
-0.300455
-0.276403
-0.224773
-0.181592
-0.13294
-0.0915085
-0.0538881
-0.0231405
0.0023433
0.0226826
0.0390341
0.0520715
0.0626169
0.0711036
0.0783082
0.0839385
0.0898454
0.0928431
0.100939
-0.334908
-0.284194
-0.260194
-0.209985
-0.167115
-0.119449
-0.0787734
-0.0421803
-0.0123723
0.0121476
0.0316254
0.0471875
0.0595393
0.0694875
0.0774676
0.0842502
0.0895273
0.0951922
0.0979048
0.106135
-0.314306
-0.267409
-0.243483
-0.194775
-0.15228
-0.105679
-0.0658244
-0.0303167
-0.0014914
0.0220314
0.0406236
0.0553779
0.0670303
0.0763699
0.083834
0.0901847
0.0951011
0.100511
0.102932
0.111271
-0.293089
-0.25011
-0.22628
-0.179155
-0.137098
-0.0916423
-0.052673
-0.018307
0.00949379
0.0319875
0.049671
0.0636002
0.0745398
0.0832597
0.0901987
0.0961081
0.100656
0.105798
0.107923
0.116342
-0.271271
-0.232308
-0.208598
-0.163137
-0.121585
-0.0773517
-0.0393308
-0.00616157
0.0205746
0.0420084
0.0587614
0.0718487
0.082063
0.0901526
0.0965579
0.102017
0.10619
0.111049
0.112875
0.121343
-0.248871
-0.214015
-0.19045
-0.146734
-0.105752
-0.0628203
-0.0258098
0.0061093
0.031742
0.0520868
0.0678884
0.0801181
0.089595
0.0970444
0.102908
0.107907
0.111699
0.116262
0.117786
0.126269
-0.225906
-0.195246
-0.171852
-0.129961
-0.0896154
-0.0480622
-0.0121226
0.018495
0.0429873
0.0622151
0.0770456
0.0884027
0.0971311
0.103931
0.109244
0.113775
0.117179
0.121433
0.122655
0.131117
-0.202396
-0.176016
-0.15282
-0.112834
-0.0731905
-0.0330912
0.0017183
0.0309848
0.0543011
0.0723857
0.0862265
0.0966972
0.104666
0.110807
0.115563
0.119618
0.122629
0.12656
0.127479
0.135882
-0.178362
-0.15634
-0.133371
-0.0953677
-0.0564937
-0.0179219
0.0156998
0.0435676
0.0656744
0.0825908
0.0954245
0.104996
0.112196
0.11767
0.121862
0.125433
0.128045
0.131639
0.132257
0.140563
-0.153827
-0.136236
-0.113524
-0.0775802
-0.0395419
-0.00256942
0.0298086
0.0562323
0.0770976
0.0928227
0.104633
0.113293
0.119715
0.124514
0.128135
0.131216
0.133424
0.136669
0.136988
0.145156
-0.128814
-0.115723
-0.0932965
-0.0594907
-0.0223526
0.0129507
0.0440311
0.0689676
0.0885614
0.103073
0.113846
0.121583
0.127218
0.131336
0.134381
0.136963
0.138764
0.141647
0.141671
0.14966
-0.103349
-0.09482
-0.0727114
-0.0411168
-0.00494407
0.0286225
0.0583536
0.081762
0.100056
0.113335
0.123055
0.12986
0.134701
0.138131
0.140594
0.142673
0.144062
0.146571
0.146306
0.154071
-0.0774562
-0.0735498
-0.0517902
-0.0224784
0.0126651
0.0444298
0.0727622
0.0946039
0.111572
0.123599
0.132255
0.138118
0.142159
0.144895
0.146772
0.148341
0.149316
0.151439
0.150891
0.15839
-0.0511631
-0.0519355
-0.0305556
-0.00359595
0.0304556
0.060356
0.0872424
0.107482
0.1231
0.133859
0.141439
0.146352
0.149586
0.151624
0.15291
0.153965
0.154522
0.156248
0.155426
0.162613
-0.0245017
-0.0299976
-0.00903097
0.0155091
0.0484076
0.0763843
0.10178
0.120383
0.134629
0.144104
0.150599
0.154555
0.156978
0.158314
0.159006
0.159542
0.15968
0.160997
0.159912
0.166741
0.00249519
-0.00775809
0.012759
0.034815
0.0665011
0.0924975
0.11636
0.133297
0.14615
0.154329
0.15973
0.162723
0.16433
0.16496
0.165055
0.165068
0.164786
0.165685
0.164347
0.170772
0.0298014
0.0147538
0.0347887
0.0542992
0.0847153
0.108678
0.130969
0.14621
0.157653
0.164523
0.168823
0.170849
0.171637
0.171558
0.171055
0.170542
0.169839
0.17031
0.168732
0.174706
0.0573846
0.0375119
0.0570319
0.0739386
0.103029
0.124909
0.145591
0.159111
0.169128
0.174679
0.177872
0.178927
0.178894
0.178104
0.177001
0.17596
0.174835
0.17487
0.173069
0.17854
0.0852109
0.0604893
0.0794615
0.0937094
0.121422
0.141171
0.160211
0.171988
0.180564
0.184789
0.18687
0.186952
0.186096
0.184594
0.18289
0.18132
0.179773
0.179363
0.177357
0.182275
0.113246
0.0836581
0.10205
0.113588
0.139871
0.157448
0.174814
0.184828
0.191952
0.194845
0.195811
0.194918
0.193238
0.191024
0.188718
0.186619
0.184651
0.183789
0.181598
0.185907
0.141455
0.106989
0.124768
0.133549
0.158355
0.17372
0.189386
0.19762
0.203282
0.204837
0.204687
0.202818
0.200315
0.19739
0.194483
0.191853
0.189466
0.188146
0.185794
0.189434
0.169802
0.130453
0.147588
0.153567
0.176852
0.18997
0.20391
0.21035
0.214543
0.214758
0.213491
0.210648
0.207323
0.203688
0.20018
0.197021
0.194216
0.192433
0.189949
0.192865
0.198252
0.154019
0.170479
0.173618
0.195339
0.20618
0.218373
0.223006
0.225725
0.224599
0.222216
0.2184
0.214256
0.209913
0.205806
0.20212
0.198898
0.196649
0.194081
0.196223
0.226767
0.177657
0.193412
0.193676
0.213794
0.22233
0.232758
0.235577
0.236819
0.234353
0.230855
0.226071
0.221109
0.216061
0.211358
0.207147
0.203509
0.200795
0.198213
0.199443
0.255302
0.201332
0.216355
0.213714
0.232194
0.238403
0.24705
0.24805
0.247814
0.24401
0.239402
0.233652
0.227878
0.222129
0.216833
0.212099
0.208045
0.204874
0.202317
0.20217
0.283804
0.225002
0.239272
0.233704
0.250516
0.25438
0.261235
0.260413
0.2587
0.253562
0.24785
0.24114
0.234558
0.228112
0.222226
0.216973
0.212505
0.208883
0.206269
0.204059
0.312278
0.248658
0.262143
0.253625
0.268739
0.270242
0.275297
0.272653
0.269467
0.263002
0.256191
0.248528
0.241144
0.234007
0.227535
0.221768
0.216885
0.212819
0.210158
0.206578
0.34067
0.272259
0.284934
0.273448
0.286839
0.285972
0.289221
0.284759
0.280105
0.27232
0.26442
0.255811
0.247631
0.239809
0.232756
0.226479
0.221182
0.216679
0.213912
0.209478
0.368933
0.295768
0.307611
0.293147
0.304794
0.301552
0.302993
0.296717
0.290604
0.28151
0.272528
0.262982
0.254015
0.245514
0.237887
0.231105
0.225395
0.220464
0.217524
0.212419
0.397027
0.319151
0.330141
0.312695
0.322581
0.316962
0.316596
0.308518
0.300955
0.290562
0.280509
0.270037
0.260291
0.251119
0.242922
0.235642
0.22952
0.224175
0.221013
0.215337
0.424914
0.342375
0.352494
0.332065
0.340177
0.332185
0.330018
0.320147
0.311147
0.299469
0.288358
0.276969
0.266454
0.25662
0.247861
0.240089
0.233557
0.227808
0.224392
0.21824
0.452553
0.365406
0.374638
0.351231
0.357561
0.347203
0.343242
0.331595
0.321172
0.308223
0.296066
0.283773
0.2725
0.262013
0.252699
0.244443
0.237503
0.231363
0.227666
0.221118
0.479905
0.38821
0.396541
0.370167
0.374709
0.361998
0.356255
0.342849
0.331019
0.316816
0.303628
0.290445
0.278424
0.267294
0.257433
0.248701
0.241356
0.234837
0.230839
0.223962
0.506929
0.410754
0.418171
0.388847
0.391601
0.376553
0.369042
0.353897
0.340678
0.325241
0.311038
0.296978
0.284222
0.27246
0.262061
0.25286
0.245116
0.238229
0.233915
0.226762
0.533587
0.433003
0.439497
0.407246
0.408214
0.39085
0.381589
0.364729
0.350142
0.333489
0.318288
0.303367
0.289889
0.277506
0.266579
0.256919
0.248781
0.241537
0.236897
0.229513
0.559839
0.454924
0.460489
0.425336
0.424527
0.404873
0.393883
0.375332
0.3594
0.341553
0.325373
0.309607
0.295422
0.28243
0.270985
0.260876
0.252348
0.244759
0.239788
0.232208
0.585645
0.476483
0.481115
0.443094
0.44052
0.418604
0.40591
0.385698
0.368444
0.349426
0.332286
0.315693
0.300815
0.287227
0.275276
0.264726
0.255818
0.247894
0.24259
0.234843
0.610968
0.497649
0.501345
0.460495
0.45617
0.432028
0.417656
0.395813
0.377265
0.357101
0.339022
0.321621
0.306064
0.291895
0.279448
0.268469
0.259187
0.250941
0.245303
0.237413
0.635768
0.518387
0.521149
0.477514
0.471458
0.445128
0.429108
0.405669
0.385854
0.36457
0.345574
0.327384
0.311166
0.29643
0.283499
0.272103
0.262454
0.253897
0.247929
0.239916
0.660009
0.538665
0.540498
0.494126
0.486365
0.457888
0.440254
0.415255
0.394203
0.371827
0.351937
0.332978
0.316117
0.300828
0.287426
0.275624
0.265619
0.256761
0.250468
0.242349
0.683654
0.558453
0.559363
0.51031
0.50087
0.470293
0.451081
0.42456
0.402303
0.378864
0.358105
0.338399
0.320912
0.305086
0.291227
0.27903
0.268679
0.259531
0.25292
0.244708
0.706666
0.577719
0.577715
0.526041
0.514955
0.482328
0.461577
0.433575
0.410147
0.385675
0.364073
0.343641
0.325548
0.309202
0.2949
0.28232
0.271632
0.262206
0.255285
0.246991
0.72901
0.596433
0.595527
0.541297
0.528601
0.493978
0.47173
0.44229
0.417727
0.392255
0.369836
0.348701
0.330021
0.313171
0.29844
0.285492
0.274478
0.264784
0.257563
0.249196
0.750651
0.614565
0.612773
0.556057
0.54179
0.505229
0.481529
0.450697
0.425034
0.398595
0.375387
0.353575
0.334327
0.316992
0.301846
0.288542
0.277215
0.267264
0.259752
0.251321
0.771557
0.632086
0.629425
0.570299
0.554505
0.516068
0.490963
0.458786
0.432063
0.404692
0.380722
0.358257
0.338463
0.32066
0.305116
0.29147
0.27984
0.269644
0.261853
0.253365
0.791694
0.648968
0.64546
0.584004
0.566729
0.526481
0.50002
0.466549
0.438805
0.410537
0.385837
0.362744
0.342426
0.324174
0.308247
0.294272
0.282353
0.271922
0.263865
0.255324
0.811031
0.665184
0.660852
0.597151
0.578446
0.536455
0.508691
0.473977
0.445254
0.416127
0.390726
0.367032
0.346212
0.32753
0.311237
0.296948
0.284751
0.274097
0.265786
0.257198
0.829537
0.680709
0.675578
0.609722
0.589641
0.545979
0.516965
0.481062
0.451404
0.421456
0.395386
0.371118
0.349818
0.330726
0.314083
0.299495
0.287034
0.276168
0.267615
0.258984
0.847184
0.695516
0.689615
0.621698
0.600299
0.555041
0.524834
0.487798
0.457247
0.426517
0.399811
0.374997
0.353241
0.333759
0.316784
0.301912
0.2892
0.278134
0.269351
0.260681
0.863944
0.709583
0.702943
0.633063
0.610406
0.563628
0.532288
0.494176
0.462779
0.431308
0.403998
0.378666
0.356479
0.336627
0.319337
0.304196
0.291246
0.279991
0.270994
0.262288
0.87979
0.722885
0.71554
0.643799
0.619947
0.571732
0.539318
0.500189
0.467993
0.435822
0.407942
0.382123
0.359528
0.339327
0.321741
0.306347
0.293173
0.281741
0.272541
0.263803
0.894697
0.735403
0.727387
0.653892
0.628911
0.579342
0.545918
0.505832
0.472885
0.440056
0.411641
0.385363
0.362385
0.341857
0.323993
0.308361
0.294978
0.28338
0.273992
0.265224
0.908642
0.747114
0.738467
0.663326
0.637286
0.586448
0.552078
0.511098
0.477448
0.444005
0.41509
0.388384
0.365049
0.344216
0.326092
0.310239
0.29666
0.284908
0.275346
0.26655
0.921601
0.758
0.748761
0.672088
0.64506
0.593042
0.557792
0.515981
0.481679
0.447666
0.418287
0.391184
0.367517
0.346401
0.328037
0.311978
0.298218
0.286323
0.2766
0.26778
0.933555
0.768043
0.758255
0.680166
0.652224
0.599116
0.563054
0.520476
0.485573
0.451035
0.421228
0.393759
0.369788
0.348411
0.329825
0.313577
0.299651
0.287625
0.277755
0.268912
0.944485
0.777227
0.766933
0.687547
0.658767
0.604662
0.567857
0.524579
0.489126
0.454108
0.423911
0.396108
0.371858
0.350243
0.331455
0.315034
0.300957
0.288812