/*--------------------------------*- C++ -*----------------------------------*\
  =========                 |
  \\      /  F ield         | OpenFOAM: The Open Source CFD Toolbox
   \\    /   O peration     | Website:  https://openfoam.org
    \\  /    A nd           | Version:  7
     \\/     M anipulation  |
\*---------------------------------------------------------------------------*/
FoamFile
{
    version     2.0;
    format      ascii;
    class       surfaceScalarField;
    location    "20";
    object      phi;
}
// * * * * * * * * * * * * * * * * * * * * * * * * * * * * * * * * * * * * * //

dimensions      [0 3 -1 0 0 0 0];

internalField   nonuniform List<scalar> 
83430
(
-3.32915e-06
3.3292e-06
-4.8083e-11
-5.77047e-06
2.44134e-06
-1.80241e-11
-4.05474e-06
-1.7158e-06
7.00486e-11
5.03936e-06
-9.09431e-06
2.12524e-10
2.34677e-05
-1.84287e-05
3.85631e-10
5.33086e-05
-2.98414e-05
5.86158e-10
9.62534e-05
-4.29457e-05
7.98045e-10
0.000154142
-5.78894e-05
1.01699e-09
0.000228767
-7.46268e-05
1.21565e-09
0.000322083
-9.33172e-05
1.39518e-09
0.00043613
-0.000114048
1.4856e-09
0.00057313
-0.000137001
1.52869e-09
0.000735421
-0.000162292
1.32777e-09
0.00092563
-0.000190211
1.09302e-09
0.0011463
-0.000220672
2.73828e-10
0.00140101
-0.000254704
-4.05757e-10
0.00169147
-0.000290458
-2.3239e-09
0.00202574
-0.000334275
-3.6713e-09
0.00239677
-0.000371014
-7.05281e-09
-0.000445521
-9.52794e-09
0.0028423
-3.296e-06
6.6252e-06
-5.65488e-06
4.80022e-06
-3.80736e-06
-3.56331e-06
5.46987e-06
-1.83715e-05
2.41394e-05
-3.70982e-05
5.42876e-05
-5.99897e-05
9.76174e-05
-8.62754e-05
0.000155981
-0.000116253
0.000231188
-0.000149834
0.000325209
-0.000187338
0.000440105
-0.000228944
0.00057812
-0.000275016
0.000741618
-0.000325791
0.000933254
-0.000381846
0.0011556
-0.000443022
0.00141226
-0.000511359
0.00170501
-0.000583207
0.00204185
-0.000671122
0.00241596
-0.00074512
-0.000893933
0.00286437
-3.22979e-06
9.85499e-06
-5.42402e-06
6.99445e-06
-3.31333e-06
-5.674e-06
6.32958e-06
-2.80144e-05
2.54805e-05
-5.62492e-05
5.62425e-05
-9.07517e-05
0.00010034
-0.000130373
0.000159653
-0.000175565
0.000236019
-0.0002262
0.000331446
-0.000282765
0.000448034
-0.000345532
0.000588072
-0.000415054
0.000753975
-0.000491694
0.000948447
-0.000576318
0.00117413
-0.000668709
0.00143467
-0.000771891
0.00173196
-0.000880499
0.0020739
-0.00101306
0.00245412
-0.00112534
-0.00134805
0.00290823
-3.13073e-06
1.29857e-05
-5.07858e-06
8.94229e-06
-2.57409e-06
-8.17849e-06
7.61595e-06
-3.82045e-05
2.7487e-05
-7.61203e-05
5.91668e-05
-0.000122431
0.000104413
-0.00017562
0.000165143
-0.000236295
0.000243242
-0.000304299
0.000340767
-0.00038029
0.000459879
-0.000464644
0.000602931
-0.000558106
0.000772413
-0.000661176
0.000971105
-0.00077501
0.00120175
-0.000899355
0.00146803
-0.00103817
0.00177205
-0.00118452
0.00212152
-0.00136252
0.00251077
-0.00151459
-0.00181059
0.00297331
-2.99914e-06
1.59849e-05
-4.61957e-06
1.05627e-05
-1.59175e-06
-1.12063e-05
9.32518e-06
-4.91214e-05
3.01528e-05
-9.69479e-05
6.30511e-05
-0.00015533
0.000109821
-0.00022239
0.000172431
-0.000298905
0.000252825
-0.000384693
0.000353129
-0.000480594
0.000475579
-0.000587094
0.000622614
-0.000705141
0.00079682
-0.000835381
0.00100107
-0.000979261
0.00123824
-0.00113652
0.00151207
-0.00131201
0.00182491
-0.00149736
0.0021842
-0.00172182
0.00258525
-0.00191564
-0.00228411
0.00305877
-2.8354e-06
1.88203e-05
-4.04831e-06
1.17756e-05
-3.68847e-07
-1.48858e-05
1.14523e-05
-6.09425e-05
3.34697e-05
-0.000118965
6.78829e-05
-0.000189743
0.000116547
-0.000271053
0.00018149
-0.000363848
0.000264731
-0.000467934
0.000368477
-0.00058434
0.000495058
-0.000713676
0.000647014
-0.000857097
0.000827044
-0.00101541
0.00103814
-0.00119035
0.00128331
-0.0013817
0.00156639
-0.00159509
0.00189
-0.00182096
0.00226127
-0.00209309
0.00267664
-0.00233101
-0.00277095
0.00316348
-2.64004e-06
2.14603e-05
-3.36646e-06
1.25021e-05
1.09018e-06
-1.93424e-05
1.3991e-05
-7.38433e-05
3.74276e-05
-0.000142402
7.36467e-05
-0.000225962
0.000124565
-0.000321972
0.000192286
-0.000431568
0.00027891
-0.000554559
0.000386742
-0.000692172
0.000518219
-0.000845152
0.000675995
-0.00101487
0.000862901
-0.00120232
0.00108205
-0.00140951
0.00133663
-0.00163628
0.00163054
-0.00188899
0.00196671
-0.00215713
0.00235187
-0.00247825
0.00278387
-0.00276301
-0.00327318
0.0032861
-2.41364e-06
2.38739e-05
-2.57598e-06
1.26644e-05
2.78193e-06
-2.47003e-05
1.69339e-05
-8.79953e-05
4.20146e-05
-0.000167483
8.03241e-05
-0.000264271
0.000133851
-0.000375499
0.000204779
-0.000502496
0.000295307
-0.000645087
0.000407844
-0.000804709
0.000544947
-0.000982255
0.000709398
-0.00117932
0.00090417
-0.00139709
0.00113251
-0.00163785
0.00139778
-0.00190155
0.00170395
-0.00219516
0.00205429
-0.00250746
0.00245505
-0.00287901
0.00290563
-0.00321359
-0.00379259
0.00342504
-2.15689e-06
2.60308e-05
-1.6791e-06
1.21866e-05
4.70154e-06
-3.1081e-05
2.02726e-05
-0.000103566
4.72168e-05
-0.000194427
8.78937e-05
-0.000304948
0.000144371
-0.000431976
0.000218922
-0.000577047
0.000313853
-0.000740018
0.000431687
-0.000922543
0.00057511
-0.00112568
0.00074704
-0.00135125
0.000950598
-0.00160065
0.00118917
-0.00187642
0.0014663
-0.00217868
0.001786
-0.00251486
0.0021519
-0.00287336
0.00256968
-0.0032968
0.00304048
-0.00368439
-0.00433061
0.00357849
-1.87054e-06
2.79014e-05
-6.78336e-07
1.09944e-05
6.84356e-06
-3.86029e-05
2.39974e-05
-0.00012072
5.30187e-05
-0.000223448
9.63316e-05
-0.000348261
0.00015609
-0.000491734
0.000234665
-0.000655622
0.000334474
-0.000839827
0.000458166
-0.00104623
0.00060856
-0.00127607
0.000788714
-0.00153141
0.0010019
-0.00181384
0.00125164
-0.00212616
0.00154166
-0.00246869
0.00187599
-0.00284919
0.00225861
-0.00325599
0.00269456
-0.00373275
0.00318682
-0.00417664
-0.0048883
0.0037445
-1.55543e-06
2.94568e-05
4.23471e-07
9.01549e-06
9.20202e-06
-4.73814e-05
2.80978e-05
-0.000139616
5.94031e-05
-0.000254754
0.000105611
-0.000394469
0.000168968
-0.000555091
0.000251949
-0.000738603
0.000357089
-0.000944967
0.000487164
-0.00117631
0.000645133
-0.00143404
0.000834194
-0.00172047
0.00105777
-0.00203741
0.0013195
-0.0023879
0.00162328
-0.00277246
0.00197315
-0.00319905
0.00237342
-0.00365627
0.00282837
-0.0041877
0.00334292
-0.00469119
-0.00546632
0.00392095
-1.21243e-06
3.06692e-05
1.62339e-06
6.17967e-06
1.17704e-05
-5.75285e-05
3.25621e-05
-0.000160408
6.63511e-05
-0.000288543
0.000115704
-0.000443822
0.000182962
-0.00062235
0.00027071
-0.000826351
0.000381605
-0.00105586
0.000518553
-0.00131326
0.00068465
-0.00160014
0.000883232
-0.00191905
0.00111786
-0.00227204
0.00139229
-0.00266233
0.00171055
-0.00309072
0.00207666
-0.00356516
0.00249524
-0.00407484
0.00296972
-0.00466218
0.00350697
-0.00522843
-0.00606494
0.00410558
-8.42461e-07
3.15117e-05
2.9181e-06
2.41911e-06
1.45418e-05
-6.91522e-05
3.7378e-05
-0.000183244
7.38423e-05
-0.000325007
0.000126577
-0.000496557
0.000198026
-0.000693798
0.000290881
-0.000919206
0.000407926
-0.00117291
0.000552195
-0.00145753
0.000726919
-0.00177486
0.000935562
-0.00212769
0.00118181
-0.00251829
0.00146952
-0.00295004
0.00180282
-0.00342402
0.00218566
-0.003948
0.00262293
-0.00451211
0.00311715
-0.0051564
0.00367708
-0.00578836
-0.00668397
0.00429611
-4.46362e-07
3.19581e-05
4.30421e-06
-2.33146e-06
1.75088e-05
-8.23568e-05
4.2532e-05
-0.000208267
8.18552e-05
-0.00036433
0.000138199
-0.000552901
0.000214109
-0.000769708
0.00031239
-0.00101749
0.000435947
-0.00129646
0.000587943
-0.00160952
0.000771734
-0.00195865
0.000990901
-0.00234686
0.00124924
-0.00277663
0.00155067
-0.00325147
0.00189939
-0.00377275
0.00229925
-0.00434786
0.00275532
-0.00496817
0.00326915
-0.00567024
0.00385131
-0.00637052
-0.00732284
0.00449018
-1.5687e-08
3.19737e-05
5.77812e-06
-8.12527e-06
2.06633e-05
-9.7242e-05
4.80101e-05
-0.000235614
9.03666e-05
-0.000406687
0.000150533
-0.000613068
0.000231158
-0.000850333
0.000335157
-0.00112149
0.000465558
-0.00142686
0.00062564
-0.00176961
0.000818878
-0.00215189
0.00104895
-0.00257693
0.00131974
-0.00304743
0.00163519
-0.00356692
0.00199955
-0.00413711
0.00241648
-0.00476479
0.00289119
-0.00544288
0.00342422
-0.00620328
0.00402774
-0.00697404
-0.00798055
0.00468545
4.19481e-07
3.15543e-05
7.33576e-06
-1.50415e-05
2.39973e-05
-0.000113903
5.37975e-05
-0.000265414
9.93524e-05
-0.000452242
0.000163542
-0.000677257
0.000249117
-0.000935908
0.000359103
-0.00123147
0.000496642
-0.0015644
0.000665124
-0.00193809
0.000868124
-0.00235489
0.0011094
-0.00281821
0.00139289
-0.00333092
0.00172253
-0.00389656
0.00210255
-0.00451712
0.00253639
-0.00519863
0.00302931
-0.00593581
0.00358082
-0.00675479
0.00420444
-0.00759766
-0.00865574
0.00487963
8.8593e-07
3.06683e-05
8.97343e-06
-2.31291e-05
2.7502e-05
-0.000132432
5.98787e-05
-0.000297791
0.000108787
-0.00050115
0.000177186
-0.000745656
0.000267928
-0.00102665
0.000384143
-0.00134769
0.000529078
-0.00170934
0.000706223
-0.00211523
0.000919236
-0.0025679
0.00117193
-0.0030709
0.00146826
-0.00362724
0.00181211
-0.00424041
0.00220764
-0.00491266
0.00265802
-0.00564901
0.00316847
-0.00644625
0.00373745
-0.00732377
0.00437954
-0.00823975
-0.00934669
0.00507049
1.37405e-06
2.92943e-05
1.0687e-05
-3.2442e-05
3.11688e-05
-0.000152914
6.62377e-05
-0.00033286
0.000118645
-0.000553558
0.000191426
-0.000818436
0.000287531
-0.00112275
0.000410186
-0.00147034
0.000562739
-0.00186189
0.00074876
-0.00230125
0.000971969
-0.00279111
0.0012362
-0.00333514
0.00154539
-0.00393644
0.00190334
-0.00459835
0.00231406
-0.00532339
0.0027804
-0.00611535
0.00330744
-0.00697328
0.00389262
-0.00790895
0.00455124
-0.00889837
-0.0100514
0.00525594
1.88239e-06
2.74119e-05
1.24724e-05
-4.3032e-05
3.49883e-05
-0.00017543
7.28581e-05
-0.000370729
0.000128898
-0.000609598
0.000206218
-0.000895756
0.000307861
-0.0012244
0.000437143
-0.00159963
0.000597495
-0.00202224
0.000792553
-0.00249631
0.00102607
-0.00302463
0.00130188
-0.00361094
0.00162385
-0.00425841
0.00199562
-0.00497013
0.00242105
-0.00574881
0.00290257
-0.00659687
0.00344502
-0.00751574
0.0040449
-0.00850883
0.00471785
-0.00957132
-0.0107676
0.00543404
2.4097e-06
2.50022e-05
1.43252e-05
-5.49475e-05
3.89513e-05
-0.000200056
7.97227e-05
-0.000411501
0.00013952
-0.000669395
0.00022152
-0.000977756
0.000328854
-0.00133173
0.000464918
-0.00173569
0.000633211
-0.00219054
0.000837413
-0.00270051
0.00108129
-0.00326851
0.00136861
-0.00389827
0.00170316
-0.00459295
0.00208837
-0.00535534
0.00252783
-0.00618827
0.00302357
-0.0070926
0.00358007
-0.00807223
0.00419294
-0.00912171
0.00487779
-0.0102562
-0.0114928
0.00560301
2.95472e-06
2.20475e-05
1.62411e-05
-6.82339e-05
4.30483e-05
-0.000226863
8.68143e-05
-0.000455267
0.00015048
-0.000733061
0.000237287
-0.00106456
0.000350444
-0.00144489
0.000493415
-0.00187866
0.000669751
-0.00236687
0.000883151
-0.00291391
0.00113735
-0.00352271
0.00143605
-0.00419696
0.00178286
-0.00493976
0.00218098
-0.00575346
0.00263368
-0.00664097
0.00314249
-0.00760142
0.00371147
-0.00864121
0.00433545
-0.00974569
0.00502962
-0.0109503
-0.0122245
0.0057613
3.51622e-06
1.85313e-05
1.82158e-05
-8.29335e-05
4.72695e-05
-0.000255917
9.41151e-05
-0.000502112
0.00016175
-0.000800695
0.000253473
-0.00115629
0.000372563
-0.00156398
0.000522535
-0.00202863
0.000706974
-0.00255131
0.000929571
-0.00313651
0.001194
-0.00378714
0.00150384
-0.0045068
0.0018625
-0.00529842
0.00227287
-0.00616384
0.00273784
-0.00710594
0.00325844
-0.00812202
0.00383819
-0.00922096
0.00447126
-0.0103788
0.00517206
-0.0116511
-0.01296
0.00590755
4.09296e-06
1.44383e-05
2.02449e-05
-9.90855e-05
5.16051e-05
-0.000287277
0.000101607
-0.000552115
0.0001733
-0.000872388
0.000270033
-0.00125302
0.000395142
-0.00168909
0.000552178
-0.00218567
0.000744738
-0.00274387
0.000976476
-0.00336825
0.00125098
-0.00406164
0.00157164
-0.00482746
0.00194162
-0.0056684
0.00236347
-0.00658568
0.00283962
-0.00758209
0.00337058
-0.00865298
0.00395925
-0.00980963
0.00459929
-0.0110188
0.005304
-0.0123558
-0.0136966
0.00604065
4.68374e-06
9.75456e-06
2.2324e-05
-0.000116726
5.60453e-05
-0.000320998
0.000109273
-0.000605342
0.000185101
-0.000948216
0.000286919
-0.00135484
0.000418109
-0.00182028
0.000582242
-0.0023498
0.0007829
-0.00294453
0.00102367
-0.00360902
0.001308
-0.00434598
0.00163909
-0.00515855
0.00201977
-0.00604909
0.00245221
-0.00701812
0.00293834
-0.00806822
0.00347812
-0.00919276
0.00407378
-0.0104053
0.00471859
-0.0116636
0.00542451
-0.0130618
-0.0144318
0.00615972
5.28734e-06
4.46722e-06
2.44486e-05
-0.000135887
6.05801e-05
-0.00035713
0.000117093
-0.000661855
0.00019712
-0.00102824
0.000304083
-0.0014618
0.000441394
-0.00195759
0.000612623
-0.00252103
0.000821313
-0.00315322
0.00107095
-0.00385865
0.00136482
-0.00463984
0.00170583
-0.00549957
0.00209651
-0.00643976
0.00253855
-0.00746016
0.00303335
-0.00856303
0.00358033
-0.00973973
0.00418097
-0.0110059
0.00482834
-0.012311
0.00553283
-0.0137663
-0.0151631
0.0062641
5.90258e-06
-1.43536e-06
2.66144e-05
-0.000156599
6.51995e-05
-0.000395715
0.000125049
-0.000721705
0.000209329
-0.00111252
0.000321478
-0.00157395
0.000464926
-0.00210104
0.000643218
-0.00269932
0.000859833
-0.00336983
0.00111812
-0.00411694
0.00142115
-0.00494287
0.00177155
-0.00584996
0.00217141
-0.00683963
0.00262197
-0.00791072
0.00312407
-0.00906512
0.00367654
-0.0102922
0.00428013
-0.0116095
0.00492784
-0.0129587
0.00562839
-0.0144668
-0.0158881
0.00635337
6.52829e-06
-7.96365e-06
2.8817e-05
-0.000178888
6.98935e-05
-0.000436791
0.000133124
-0.000784935
0.000221695
-0.0012011
0.000339055
-0.00169131
0.000488631
-0.00225061
0.000673923
-0.00288461
0.000898313
-0.00359422
0.00116498
-0.00438361
0.00147675
-0.00525464
0.00183589
-0.0062091
0.00224407
-0.00724781
0.002702
-0.00836865
0.00320992
-0.00957304
0.00376614
-0.0108484
0.00437066
-0.012214
0.00501655
-0.0136046
0.00571079
-0.0151611
-0.0166046
0.00642731
7.16332e-06
-1.5127e-05
3.10519e-05
-0.000202776
7.46522e-05
-0.000480392
0.000141297
-0.00085158
0.000234188
-0.00129399
0.000356765
-0.00181389
0.000512436
-0.00240628
0.000704633
-0.00307681
0.000936609
-0.0038262
0.00121134
-0.00465835
0.00153135
-0.00557465
0.00189854
-0.00657629
0.00231408
-0.00766335
0.00277817
-0.00883273
0.00329041
-0.0100853
0.00384863
-0.0114066
0.00445208
-0.0128175
0.00509404
-0.0142465
0.00577981
-0.0158468
-0.0173107
0.00648591
7.80656e-06
-2.29335e-05
3.33149e-05
-0.000228285
7.94656e-05
-0.000526542
0.000149551
-0.000921665
0.000246776
-0.00139121
0.00037456
-0.00194167
0.00053627
-0.00256799
0.000735242
-0.00327578
0.000974574
-0.00406553
0.001257
-0.00494077
0.00158471
-0.00590236
0.00195918
-0.00695075
0.00238108
-0.00808525
0.00285005
-0.0093017
0.00336508
-0.0106003
0.00392355
-0.0119651
0.00452398
-0.0134179
0.00516005
-0.0148826
0.00583538
-0.0165221
-0.0180046
0.00652931
8.45689e-06
-3.13904e-05
3.56018e-05
-0.000255429
8.43237e-05
-0.000575264
0.000157867
-0.000995208
0.000259429
-0.00149277
0.00039239
-0.00207463
0.000560058
-0.00273566
0.000765648
-0.00348137
0.00101207
-0.00431195
0.00130177
-0.00523048
0.00163658
-0.00623718
0.00201752
-0.00733169
0.00244472
-0.00851246
0.00291726
-0.00977424
0.00343354
-0.0111166
0.00399052
-0.0125221
0.00458609
-0.0140135
0.00521442
-0.0155109
0.00587757
-0.0171853
-0.0186849
0.00655783
9.11325e-06
-4.05037e-05
3.79082e-05
-0.000284224
8.92167e-05
-0.000626573
0.000166226
-0.00107222
0.000272113
-0.00159866
0.000410206
-0.00221272
0.000583729
-0.00290918
0.000795747
-0.00369339
0.00104894
-0.00456515
0.00134547
-0.005527
0.00168673
-0.00657844
0.00207327
-0.00771823
0.00250468
-0.00894386
0.00297946
-0.010249
0.00349546
-0.0116326
0.00404928
-0.0130759
0.00463823
-0.0146024
0.00525712
-0.0161298
0.0059066
-0.0178348
-0.0193502
0.0065719
9.7746e-06
-5.02783e-05
4.023e-05
-0.00031468
9.41346e-05
-0.000680477
0.000174609
-0.00115269
0.000284799
-0.00170885
0.000427959
-0.00235588
0.000607208
-0.00308843
0.000825435
-0.00391162
0.00108507
-0.00482478
0.00138791
-0.00582984
0.00173493
-0.00692547
0.00212617
-0.00810947
0.00256065
-0.00937834
0.00303635
-0.0107247
0.00355055
-0.0121468
0.00409959
-0.013625
0.00468031
-0.0151832
0.00528824
-0.0167378
0.00592278
-0.0184693
-0.0199995
0.00657208
1.04399e-05
-6.07182e-05
4.2563e-05
-0.000346803
9.90678e-05
-0.000736982
0.000182999
-0.00123662
0.000297455
-0.00182331
0.0004456
-0.00250403
0.000630425
-0.00327326
0.00085461
-0.0041358
0.0011203
-0.00509047
0.00142891
-0.00613845
0.00178097
-0.00727753
0.00217597
-0.00850446
0.00261238
-0.00981475
0.00308765
-0.0112
0.00359859
-0.0126577
0.00414134
-0.0141677
0.00471235
-0.0157542
0.00530797
-0.0173334
0.00592653
-0.0190879
-0.0206319
0.006559
1.11082e-05
-7.18263e-05
4.49031e-05
-0.000380598
0.000104006
-0.000796085
0.000191376
-0.00132399
0.00031005
-0.00194198
0.000463081
-0.00265706
0.000653307
-0.00346349
0.000883174
-0.00436567
0.00115451
-0.00536181
0.00146832
-0.00645226
0.00182464
-0.00763385
0.00222244
-0.00890226
0.00265962
-0.0102519
0.00313317
-0.0116735
0.00363943
-0.013164
0.00417446
-0.0147027
0.00473442
-0.0163141
0.00531659
-0.0179155
0.00591834
-0.0196896
-0.0212469
0.00653335
1.17784e-05
-8.36047e-05
4.72462e-05
-0.000416066
0.000108941
-0.00085778
0.000199722
-0.00141477
0.000322552
-0.00206481
0.000480353
-0.00281486
0.000675784
-0.00365892
0.000911027
-0.00460091
0.00118756
-0.00563834
0.00150596
-0.00677066
0.00186576
-0.00799365
0.00226537
-0.00930187
0.00270218
-0.0106887
0.00317271
-0.0121441
0.00367296
-0.0136642
0.00419896
-0.0152287
0.0047467
-0.0168619
0.00531445
-0.0184833
0.00589876
-0.0202739
-0.0218441
0.0064959
1.24496e-05
-9.60543e-05
4.95883e-05
-0.000453204
0.000113861
-0.000922052
0.000208018
-0.00150893
0.00033493
-0.00219172
0.000497367
-0.0029773
0.000697785
-0.00385934
0.000938074
-0.0048412
0.00121934
-0.0059196
0.00154169
-0.00709301
0.00190414
-0.0083561
0.00230458
-0.00970231
0.00273988
-0.011124
0.00320616
-0.0126104
0.00369915
-0.0141572
0.00421492
-0.0157445
0.00474941
-0.0173964
0.00530199
-0.0190359
0.00586835
-0.0208403
-0.0224232
0.00644744
1.31209e-05
-0.000109175
5.19253e-05
-0.000492009
0.000118758
-0.000988885
0.000216247
-0.00160642
0.000347153
-0.00232263
0.000514076
-0.00314422
0.000719242
-0.0040645
0.00096422
-0.00508618
0.00124971
-0.0062051
0.00157536
-0.00741865
0.00193964
-0.00872038
0.00233991
-0.0101026
0.00277258
-0.0115567
0.00323343
-0.0130712
0.00371799
-0.0146418
0.00422247
-0.016249
0.00474286
-0.0179167
0.00527966
-0.0195727
0.00582771
-0.0213884
-0.0229844
0.0063889
1.37913e-05
-0.000122967
5.42534e-05
-0.000532471
0.000123621
-0.00105825
0.000224389
-0.00170719
0.000359192
-0.00245743
0.000530434
-0.00331546
0.000740086
-0.00427415
0.000989373
-0.00533546
0.00127857
-0.00649429
0.00160682
-0.00774691
0.00197209
-0.00908565
0.00237122
-0.0105017
0.00280017
-0.0119857
0.00325449
-0.0135255
0.00372954
-0.0151168
0.0042218
-0.0167413
0.00472738
-0.0184223
0.00524799
-0.0200933
0.0057774
-0.0219178
-0.0235282
0.0063212
1.446e-05
-0.000137427
5.65684e-05
-0.000574579
0.000128442
-0.00113013
0.000232427
-0.00181117
0.000371014
-0.00259602
0.000546392
-0.00349084
0.000760252
-0.00448801
0.00101345
-0.00558866
0.00130581
-0.00678666
0.00163597
-0.00807707
0.00200138
-0.00945105
0.00239839
-0.0108987
0.00282259
-0.0124099
0.00326931
-0.0139722
0.0037339
-0.0155814
0.00421312
-0.0172205
0.00470336
-0.0189126
0.0052075
-0.0205974
0.00571795
-0.0224282
-0.024056
0.0062458
1.51259e-05
-0.000152552
5.88665e-05
-0.00061832
0.00013321
-0.00120447
0.000240341
-0.0019183
0.00038259
-0.00273827
0.000561904
-0.00367016
0.000779674
-0.00470578
0.00103635
-0.00584534
0.00133132
-0.00708162
0.00166268
-0.00840844
0.00202738
-0.00981575
0.00242133
-0.0112927
0.0028398
-0.0128283
0.00327795
-0.0144104
0.00373122
-0.0160347
0.00419672
-0.017686
0.0046712
-0.019387
0.0051587
-0.0210849
0.00565002
-0.0229195
-0.0245726
0.00616665
1.57913e-05
-0.000168344
6.11501e-05
-0.000663679
0.000137926
-0.00128125
0.000248128
-0.00202851
0.000393904
-0.00288404
0.000576942
-0.00385319
0.000798304
-0.00492715
0.00105803
-0.00610507
0.00135501
-0.0073786
0.00168686
-0.00874029
0.00205002
-0.0101789
0.00243999
-0.0116826
0.00285176
-0.0132401
0.00328046
-0.0148391
0.00372166
-0.0164759
0.00417286
-0.0181372
0.00463129
-0.0198455
0.00510195
-0.0215556
0.00557556
-0.0233931
-0.0251013
0.00610427
1.64492e-05
-0.000184793
6.34028e-05
-0.000710632
0.000142562
-0.0013604
0.000255743
-0.00214169
0.000404898
-0.0030332
0.00059143
-0.00403973
0.000816051
-0.00515177
0.00107837
-0.00636739
0.00137679
-0.00767702
0.0017084
-0.00907191
0.00206919
-0.0105397
0.0024543
-0.0120678
0.00285851
-0.0136443
0.00327698
-0.0152576
0.00370546
-0.0169044
0.00414194
-0.0185737
0.00458415
-0.0202877
0.00503786
-0.0220093
0.00549407
-0.0238494
-0.0256071
0.00599987
1.71017e-05
-0.000201895
6.56266e-05
-0.000759157
0.000147116
-0.00144189
0.000263182
-0.00225775
0.000415556
-0.00318557
0.000605339
-0.00422951
0.000832872
-0.0053793
0.00109731
-0.00663182
0.00139656
-0.00797627
0.00172724
-0.00940258
0.00208486
-0.0108973
0.00246426
-0.0124472
0.0028601
-0.0140402
0.00326761
-0.0156651
0.00368284
-0.0173196
0.00410425
-0.0189951
0.00453019
-0.0207136
0.00496689
-0.022446
0.00540657
-0.024289
-0.02609
0.00588938
1.77477e-05
-0.000219642
6.78175e-05
-0.000809227
0.00015158
-0.00152566
0.000270425
-0.0023766
0.00042585
-0.003341
0.000618628
-0.00442229
0.00084871
-0.00560938
0.00111479
-0.0068979
0.00141427
-0.00827576
0.00174329
-0.00973159
0.00209696
-0.011251
0.00246987
-0.0128201
0.00285659
-0.0144269
0.00325252
-0.016061
0.00365406
-0.0177211
0.00406018
-0.0194012
0.00446985
-0.0211233
0.00488961
-0.0228658
0.00531332
-0.0247127
-0.0265513
0.0057747
1.83864e-05
-0.000238029
6.99715e-05
-0.000860812
0.000155944
-0.00161163
0.000277456
-0.00249811
0.00043575
-0.00349929
0.000631253
-0.00461779
0.00086351
-0.00584164
0.00113073
-0.00716512
0.00142985
-0.00857487
0.00175651
-0.0100583
0.00210548
-0.0116
0.00247114
-0.0131857
0.00284808
-0.0148038
0.00323189
-0.0164448
0.0036194
-0.0181086
0.00401008
-0.0197919
0.00440356
-0.0215168
0.00480656
-0.0232688
0.00521467
-0.0251209
-0.0269928
0.0056561
1.90168e-05
-0.000257046
7.20846e-05
-0.00091388
0.000160197
-0.00169974
0.000284257
-0.00262217
0.000445228
-0.00366026
0.000643177
-0.00481574
0.000877221
-0.00607568
0.00114509
-0.007433
0.00144323
-0.008873
0.00176685
-0.0103819
0.00211041
-0.0119435
0.00246813
-0.0135435
0.00283468
-0.0151704
0.00320592
-0.0168161
0.00357914
-0.0184819
0.00395432
-0.0201671
0.00433175
-0.0218942
0.00471823
-0.0236553
0.00511102
-0.0255136
-0.0274155
0.00553372
1.96378e-05
-0.000276683
7.41525e-05
-0.000968394
0.000164332
-0.00178992
0.000290809
-0.00274865
0.000454258
-0.00382371
0.000654359
-0.00501584
0.000889794
-0.00631112
0.00115781
-0.00770101
0.00145437
-0.00916956
0.00177429
-0.0107018
0.00211175
-0.012281
0.00246089
-0.0138926
0.00281652
-0.015526
0.00317483
-0.0171744
0.00353358
-0.0188406
0.00389327
-0.0205267
0.00425483
-0.0222558
0.00462508
-0.0240255
0.0050028
-0.0258914
-0.0278204
0.00540775
2.02486e-05
-0.000296932
7.61713e-05
-0.00102432
0.000168338
-0.00188209
0.000297097
-0.00287741
0.000462811
-0.00398942
0.000664763
-0.00521779
0.000901186
-0.00654754
0.00116884
-0.00796867
0.00146323
-0.00946395
0.0017788
-0.0110174
0.00210952
-0.0126117
0.00244951
-0.0142326
0.00279375
-0.0158702
0.00313884
-0.0175195
0.00348301
-0.0191848
0.0038273
-0.020871
0.0041732
-0.0226017
0.00452754
-0.0243798
0.00489039
-0.0262542
-0.0282084
0.00527838
2.0848e-05
-0.00031778
7.81368e-05
-0.00108161
0.000172205
-0.00197615
0.000303102
-0.0030083
0.000470862
-0.00415719
0.000674354
-0.00542128
0.000911353
-0.00678454
0.00117814
-0.00823545
0.00146978
-0.00975559
0.00178039
-0.011328
0.00210376
-0.0129351
0.00243407
-0.0145629
0.00276655
-0.0162027
0.00309818
-0.0178511
0.00342775
-0.0195144
0.00375675
-0.0212
0.00408724
-0.0229322
0.00442597
-0.0247186
0.00477416
-0.0266024
-0.0285801
0.00514581
2.1435e-05
-0.000339215
8.00447e-05
-0.00114022
0.000175924
-0.00207203
0.000308807
-0.00314119
0.000478385
-0.00432676
0.000683097
-0.005626
0.000920258
-0.0070217
0.00118567
-0.00850087
0.001474
-0.0100439
0.00177905
-0.011633
0.00209452
-0.0132505
0.00241469
-0.0148831
0.00273507
-0.0165231
0.0030531
-0.0181691
0.00336809
-0.0198293
0.00368197
-0.0215139
0.00399731
-0.0232475
0.00432075
-0.025042
0.00465443
-0.0269361
-0.0289359
0.00501024
2.20085e-05
-0.000361223
8.18909e-05
-0.0012001
0.000179486
-0.00216963
0.000314197
-0.0032759
0.000485355
-0.00449792
0.000690962
-0.0058316
0.000927865
-0.0072586
0.00119141
-0.00876441
0.00147586
-0.0103284
0.00177481
-0.011932
0.00208187
-0.0135576
0.00239148
-0.0151927
0.00269951
-0.0168311
0.00300385
-0.0184735
0.00330433
-0.0201298
0.00360328
-0.0218129
0.00390373
-0.0235479
0.00421219
-0.0253505
0.00453153
-0.0272554
-0.0292762
0.00487186
2.25674e-05
-0.000383791
8.36711e-05
-0.0012612
0.000182881
-0.00226884
0.000319254
-0.00341227
0.00049175
-0.00467042
0.000697919
-0.00603777
0.000934145
-0.00749483
0.00119533
-0.00902559
0.00147538
-0.0106084
0.00176768
-0.0122243
0.00206587
-0.0138558
0.00236458
-0.0154914
0.00266006
-0.0171266
0.00295067
-0.0187641
0.00323675
-0.0204159
0.003521
-0.0220971
0.00380684
-0.0238338
0.0041006
-0.0256442
0.00440572
-0.0275605
-0.0296013
0.00473087
2.31107e-05
-0.000406901
8.5381e-05
-0.00132347
0.000186099
-0.00236956
0.000323964
-0.00355014
0.000497546
-0.004844
0.000703941
-0.00624417
0.000939071
-0.00772996
0.0011974
-0.00928393
0.00147254
-0.0108836
0.00175772
-0.0125094
0.00204662
-0.0141447
0.00233413
-0.0157789
0.00261691
-0.0174094
0.0028938
-0.019041
0.00316563
-0.0206877
0.00343543
-0.0223669
0.00370691
-0.0241053
0.00398624
-0.0259236
0.00427726
-0.0278516
-0.0299115
0.00458744
2.3637e-05
-0.000430538
8.70164e-05
-0.00138685
0.000189132
-0.00247167
0.00032831
-0.00368931
0.000502722
-0.00501841
0.000709002
-0.00645045
0.000942618
-0.00796358
0.00119763
-0.00953894
0.00146737
-0.0111533
0.00174496
-0.012787
0.0020242
-0.0144239
0.00230027
-0.016055
0.00257025
-0.0176794
0.00283349
-0.0193042
0.00309124
-0.0209455
0.00334683
-0.0226225
0.00360422
-0.0243626
0.00386937
-0.0261887
0.00414639
-0.0281286
-0.0302069
0.00444173
2.41454e-05
-0.000454684
8.85729e-05
-0.00145128
0.00019197
-0.00257507
0.000332278
-0.00382962
0.000507258
-0.00519339
0.000713081
-0.00665627
0.00094477
-0.00819527
0.00119601
-0.00979018
0.00145988
-0.0114172
0.00172946
-0.0130566
0.00199871
-0.0146932
0.00226315
-0.0163194
0.0025203
-0.0179365
0.00276997
-0.0195539
0.00301384
-0.0211893
0.00325549
-0.0228642
0.00349903
-0.0246062
0.00375022
-0.0264399
0.0040133
-0.0283917
-0.0304875
0.00429392
2.46345e-05
-0.000479318
9.00463e-05
-0.00151669
0.000194605
-0.00267963
0.000335853
-0.00397087
0.000511135
-0.00536867
0.000716157
-0.00686129
0.000945512
-0.00842462
0.00119253
-0.0100372
0.0014501
-0.0116747
0.0017113
-0.0133178
0.00197028
-0.0149522
0.00222293
-0.016572
0.00246724
-0.0181808
0.00270347
-0.0197901
0.00293368
-0.0214195
0.00316163
-0.0230921
0.00339157
-0.0248361
0.003629
-0.0266773
0.0038782
-0.0286409
-0.0307534
0.00414413
2.51033e-05
-0.000504422
9.14323e-05
-0.00158302
0.000197027
-0.00278522
0.000339022
-0.00411287
0.000514336
-0.00554399
0.000718214
-0.00706517
0.000944832
-0.00865124
0.0011872
-0.0102796
0.00143806
-0.0119256
0.00169052
-0.0135703
0.001939
-0.0152006
0.00217976
-0.0168128
0.00241128
-0.0184123
0.00263422
-0.020013
0.00285098
-0.0216363
0.00306551
-0.0233066
0.00328206
-0.0250527
0.0035059
-0.0269012
0.00374127
-0.0288762
-0.0310047
0.00399253
2.55503e-05
-0.000529972
9.27266e-05
-0.0016502
0.000199228
-0.00289173
0.000341772
-0.00425541
0.000516844
-0.00571906
0.000719236
-0.00726756
0.000942726
-0.00887473
0.00118004
-0.0105169
0.0014238
-0.0121694
0.00166723
-0.0138137
0.001905
-0.0154384
0.00213382
-0.0170416
0.0023526
-0.0186311
0.00256242
-0.0202229
0.00276598
-0.0218399
0.00296732
-0.023508
0.0031707
-0.0252561
0.0033811
-0.0271116
0.00360266
-0.0290978
-0.0312413
0.00383925
2.59744e-05
-0.000555946
9.3925e-05
-0.00171815
0.0002012
-0.002999
0.000344089
-0.0043983
0.000518646
-0.00589362
0.000719212
-0.00746812
0.00093919
-0.00909471
0.00117105
-0.0107487
0.00140737
-0.0124057
0.00164149
-0.0140478
0.00186841
-0.0156653
0.00208525
-0.0172585
0.00229139
-0.0188373
0.00248829
-0.0204198
0.00267888
-0.0220305
0.00286727
-0.0236964
0.00305767
-0.0254465
0.00325477
-0.0273087
0.00346253
-0.0293055
-0.0314631
0.00368441
2.63743e-05
-0.000582321
9.50234e-05
-0.0017868
0.000202935
-0.00310691
0.000345963
-0.00454133
0.000519728
-0.00606738
0.000718132
-0.00766653
0.000934229
-0.0093108
0.00116028
-0.0109748
0.00138882
-0.0126342
0.00161339
-0.0142724
0.00182934
-0.0158813
0.00203422
-0.0174634
0.00222785
-0.0190309
0.00241201
-0.0206039
0.00258988
-0.0222083
0.00276554
-0.023872
0.00294314
-0.0256241
0.00312706
-0.0274926
0.00332103
-0.0294995
-0.0316703
0.00352814
2.67488e-05
-0.00060907
9.60176e-05
-0.00185606
0.000204424
-0.00321532
0.000347383
-0.00468429
0.000520079
-0.00624008
0.000715991
-0.00786244
0.000927847
-0.00952266
0.00114773
-0.0111947
0.00136821
-0.0128547
0.00158304
-0.0144872
0.00178793
-0.0160862
0.00198089
-0.0176563
0.00216214
-0.0192121
0.00233379
-0.0207756
0.00249916
-0.0223737
0.00266232
-0.0240352
0.00282728
-0.025789
0.00299811
-0.0276634
0.00317829
-0.0296797
-0.0318626
0.00337058
2.70967e-05
-0.000636166
9.69038e-05
-0.00192587
0.000205661
-0.00332408
0.000348338
-0.00482696
0.00051969
-0.00641143
0.000712785
-0.00805553
0.000920054
-0.00972993
0.00113345
-0.0114081
0.0013456
-0.0130669
0.00155051
-0.0146921
0.0017443
-0.01628
0.0019254
-0.0178374
0.00209443
-0.0193812
0.00225378
-0.0209349
0.00240689
-0.0225268
0.00255777
-0.0241861
0.00271024
-0.0259415
0.00286807
-0.0278213
0.00303445
-0.0298461
-0.03204
0.00321185
2.74165e-05
-0.000663583
9.76779e-05
-0.00199613
0.000206638
-0.00343304
0.000348821
-0.00496915
0.000518553
-0.00658116
0.000708513
-0.00824549
0.000910866
-0.00993228
0.00111746
-0.0116147
0.00132105
-0.0132704
0.00151592
-0.014887
0.00169858
-0.0164626
0.00186791
-0.0180067
0.0020249
-0.0195382
0.00217217
-0.0210822
0.00231324
-0.0226679
0.00245202
-0.0243248