/*--------------------------------*- C++ -*----------------------------------*\
  =========                 |
  \\      /  F ield         | OpenFOAM: The Open Source CFD Toolbox
   \\    /   O peration     | Website:  https://openfoam.org
    \\  /    A nd           | Version:  7
     \\/     M anipulation  |
\*---------------------------------------------------------------------------*/
FoamFile
{
    version     2.0;
    format      ascii;
    class       volScalarField;
    location    "15";
    object      p;
}
// * * * * * * * * * * * * * * * * * * * * * * * * * * * * * * * * * * * * * //

dimensions      [0 2 -2 0 0 0 0];

internalField   nonuniform List<scalar> 
2625
(
0.0543314
0.048898
0.0434697
0.0380544
0.0326604
0.0272957
0.0219681
0.0166843
0.0114535
0.00628282
0.00117916
-0.00385086
-0.00880086
-0.0136648
-0.0184371
-0.0231126
-0.0276865
-0.0321545
0.0794234
0.0749571
0.070447
0.0658993
0.0613203
0.0567165
0.0520948
0.0474622
0.0428256
0.0381923
0.0335695
0.0289643
0.0243842
0.0198363
0.0153279
0.0795159
0.0750457
0.070531
0.0659779
0.0613928
0.0567824
0.0521536
0.0475134
0.042869
0.0382278
0.0335971
0.0289844
0.0243972
0.0198426
0.015328
0.079666
0.0751893
0.0706672
0.0661057
0.0615115
0.0568911
0.0522516
0.0476001
0.042944
0.0382906
0.0336476
0.0290223
0.0244224
0.0198554
0.0153285
0.0798094
0.0753261
0.0707966
0.066227
0.0616239
0.0569939
0.0523442
0.047682
0.0430146
0.0383496
0.0336946
0.0290572
0.024445
0.0198655
0.0153264
0.0799447
0.0754549
0.0709181
0.0663406
0.0617287
0.0570895
0.05243
0.0477574
0.0430792
0.038403
0.0337366
0.0290875
0.0244636
0.0198723
0.0153214
0.0800782
0.0755818
0.0710375
0.0664518
0.0618312
0.0571826
0.0525131
0.0478301
0.0431411
0.0384538
0.0337759
0.0291152
0.0244795
0.0198765
0.0153139
0.0802113
0.0757079
0.071156
0.066562
0.0619324
0.0572743
0.0525947
0.0479012
0.0432012
0.0385026
0.0338132
0.0291408
0.0244933
0.0198784
0.0153041
0.0803435
0.0758329
0.0712731
0.0666706
0.062032
0.0573642
0.0526745
0.0479704
0.0432595
0.0385495
0.0338485
0.0291643
0.0245049
0.0198781
0.015292
0.0804747
0.0759566
0.0713889
0.0667777
0.0621299
0.0574524
0.0527525
0.0480377
0.0433157
0.0385944
0.0338817
0.0291857
0.0245145
0.0198757
0.0152777
0.0806048
0.0760792
0.0715032
0.0668833
0.0622262
0.0575389
0.0528287
0.0481031
0.04337
0.0386373
0.033913
0.0292052
0.024522
0.0198713
0.0152613
0.0807339
0.0762005
0.0716162
0.0669875
0.0623209
0.0576237
0.0529031
0.0481668
0.0434226
0.0386784
0.0339424
0.0292227
0.0245275
0.0198648
0.0152429
0.0808621
0.0763207
0.071728
0.0670902
0.0624141
0.0577069
0.0529759
0.0482287
0.0434733
0.0387177
0.03397
0.0292384
0.0245312
0.0198565
0.0152225
0.0809894
0.0764399
0.0718385
0.0671915
0.0625059
0.0577886
0.053047
0.048289
0.0435224
0.0387553
0.0339958
0.0292523
0.0245331
0.0198463
0.0152003
0.0811157
0.0765579
0.0719477
0.0672915
0.0625962
0.0578687
0.0531167
0.0483477
0.0435698
0.0387912
0.03402
0.0292645
0.0245333
0.0198344
0.0151763
0.0812411
0.0766749
0.0720558
0.0673902
0.0626851
0.0579474
0.0531847
0.0484048
0.0436157
0.0388254
0.0340425
0.0292751
0.0245318
0.0198208
0.0151506
0.0813657
0.0767908
0.0721627
0.0674877
0.0627726
0.0580247
0.0532514
0.0484604
0.04366
0.0388582
0.0340634
0.029284
0.0245287
0.0198055
0.0151232
0.0814894
0.0769057
0.0722684
0.0675839
0.0628589
0.0581006
0.0533166
0.0485146
0.0437028
0.0388894
0.0340828
0.0292915
0.024524
0.0197887
0.0150943
0.0816122
0.0770197
0.0723731
0.0676789
0.0629438
0.0581752
0.0533804
0.0485674
0.0437442
0.0389192
0.0341008
0.0292974
0.0245179
0.0197704
0.0150638
0.0817342
0.0771326
0.0724767
0.0677727
0.0630276
0.0582484
0.0534429
0.0486188
0.0437842
0.0389475
0.0341173
0.029302
0.0245103
0.0197506
0.0150319
0.0818553
0.0772446
0.0725792
0.0678654
0.0631101
0.0583204
0.0535041
0.0486688
0.0438229
0.0389746
0.0341325
0.0293051
0.0245013
0.0197295
0.0149985
0.0819757
0.0773557
0.0726806
0.0679569
0.0631914
0.0583912
0.053564
0.0487176
0.0438602
0.0390003
0.0341463
0.029307
0.0244911
0.019707
0.0149639
0.0820952
0.0774658
0.0727811
0.0680474
0.0632716
0.0584608
0.0536227
0.0487651
0.0438963
0.0390247
0.0341589
0.0293076
0.0244795
0.0196833
0.0149279
0.0822139
0.077575
0.0728805
0.0681368
0.0633506
0.0585292
0.0536802
0.0488114
0.0439312
0.039048
0.0341703
0.0293069
0.0244668
0.0196583
0.0148907
0.0823319
0.0776833
0.072979
0.0682251
0.0634286
0.0585965
0.0537365
0.0488566
0.0439649
0.03907
0.0341805
0.0293051
0.0244528
0.0196322
0.0148524
0.082449
0.0777908
0.0730765
0.0683124
0.0635054
0.0586626
0.0537917
0.0489006
0.0439975
0.0390909
0.0341896
0.0293022
0.0244378
0.0196049
0.0148129
0.0825654
0.0778973
0.073173
0.0683987
0.0635812
0.0587277
0.0538458
0.0489435
0.0440289
0.0391107
0.0341975
0.0292981
0.0244216
0.0195766
0.0147723
0.082681
0.078003
0.0732686
0.068484
0.063656
0.0587918
0.0538989
0.0489853
0.0440593
0.0391294
0.0342044
0.029293
0.0244044
0.0195472
0.0147307
0.0827958
0.0781079
0.0733633
0.0685683
0.0637298
0.0588547
0.0539509
0.049026
0.0440886
0.0391471
0.0342103
0.0292869
0.0243862
0.0195168
0.0146882
0.0829099
0.0782118
0.073457
0.0686517
0.0638026
0.0589167
0.0540018
0.0490658
0.0441169
0.0391638
0.0342151
0.0292798
0.0243671
0.0194855
0.0146446
0.078315
0.0735499
0.0687341
0.0638744
0.0589777
0.0540518
0.0491046
0.0441443
0.0391795
0.0342191
0.0292718
0.024347
0.0194533
0.0146002
0.0784173
0.0736419
0.0688156
0.0639452
0.0590377
0.0541008
0.0491423
0.0441707
0.0391943
0.0342221
0.0292629
0.024326
0.0194202
0.0145549
0.0785188
0.073733
0.0688962
0.0640151
0.0590968
0.0541489
0.0491792
0.0441961
0.0392081
0.0342242
0.0292531
0.0243042
0.0193863
0.0145089
0.0786194
0.0738232
0.0689759
0.0640841
0.059155
0.054196
0.0492151
0.0442207
0.0392211
0.0342254
0.0292425
0.0242816
0.0193515
0.014462
0.0787193
0.0739125
0.0690547
0.0641522
0.0592122
0.0542422
0.0492502
0.0442443
0.0392333
0.0342259
0.0292311
0.0242582
0.0193161
0.0144144
0.0788183
0.0740011
0.0691326
0.0642194
0.0592686
0.0542876
0.0492844
0.0442672
0.0392446
0.0342255
0.0292188
0.024234
0.0192799
0.0143661
0.0789165
0.0740887
0.0692096
0.0642857
0.0593241
0.0543321
0.0493177
0.0442892
0.0392551
0.0342244
0.0292059
0.0242092
0.019243
0.0143171
0.0790139
0.0741755
0.0692858
0.0643512
0.0593787
0.0543757
0.0493502
0.0443104
0.0392648
0.0342225
0.0291922
0.0241836
0.0192054
0.0142675
0.0791105
0.0742615
0.0693612
0.0644158
0.0594325
0.0544185
0.0493819
0.0443308
0.0392738
0.0342199
0.0291779
0.0241574
0.0191672
0.0142173
0.0792064
0.0743467
0.0694357
0.0644796
0.0594854
0.0544606
0.0494128
0.0443505
0.0392821
0.0342166
0.0291629
0.0241306
0.0191285
0.0141665
0.0793014
0.0744311
0.0695093
0.0645425
0.0595376
0.0545018
0.049443
0.0443694
0.0392896
0.0342126
0.0291473
0.0241031
0.0190891
0.0141152
0.0793956
0.0745146
0.0695822
0.0646047
0.0595889
0.0545422
0.0494724
0.0443876
0.0392965
0.034208
0.029131
0.0240751
0.0190493
0.0140634
0.079489
0.0745973
0.0696542
0.064666
0.0596395
0.0545819
0.049501
0.0444051
0.0393027
0.0342028
0.0291142
0.0240466
0.0190089
0.0140111
0.0795816
0.0746792
0.0697255
0.0647266
0.0596893
0.0546208
0.049529
0.044422
0.0393083
0.0341969
0.0290968
0.0240175
0.018968
0.0139583
0.0796734
0.0747604
0.0697959
0.0647864
0.0597383
0.054659
0.0495563
0.0444382
0.0393133
0.0341905
0.0290789
0.0239879
0.0189267
0.0139052
0.0797644
0.0748407
0.0698656
0.0648453
0.0597866
0.0546965
0.0495828
0.0444537
0.0393176
0.0341836
0.0290605
0.0239579
0.018885
0.0138516
0.0798547
0.0749202
0.0699345
0.0649036
0.0598341
0.0547333
0.0496088
0.0444687
0.0393214
0.0341761
0.0290415
0.0239274
0.0188428
0.0137977
0.0799441
0.0749989
0.0700026
0.0649611
0.059881
0.0547694
0.049634
0.044483
0.0393247
0.0341681
0.0290221
0.0238965
0.0188003
0.0137435
0.0800328
0.0750769
0.0700699
0.0650178
0.0599271
0.0548048
0.0496587
0.0444967
0.0393273
0.0341596
0.0290023
0.0238652
0.0187574
0.0136889
0.0801206
0.0751541
0.0701365
0.0650738
0.0599725
0.0548396
0.0496827
0.0445099
0.0393295
0.0341506
0.028982
0.0238335
0.0187142
0.013634
0.0802077
0.0752305
0.0702023
0.0651291
0.0600172
0.0548737
0.0497061
0.0445225
0.0393312
0.0341411
0.0289613
0.0238015
0.0186706
0.0135789
0.0802939
0.0753061
0.0702674
0.0651836
0.0600612
0.0549072
0.0497289
0.0445345
0.0393323
0.0341313
0.0289403
0.0237691
0.0186268
0.0135235
0.0803794
0.0753809
0.0703317
0.0652375
0.0601046
0.05494
0.0497512
0.0445461
0.039333
0.034121
0.0289188
0.0237364
0.0185827
0.0134679
0.0804641
0.075455
0.0703953
0.0652907
0.0601474
0.0549723
0.0497729
0.0445571
0.0393332
0.0341103
0.0288971
0.0237034
0.0185383
0.0134121
0.0805481
0.0755284
0.0704582
0.0653432
0.0601895
0.055004
0.0497941
0.0445677
0.0393331
0.0340992
0.028875
0.0236701
0.0184938
0.0133561
0.0806306
0.0756004
0.0705199
0.0653945
0.0602306
0.0550348
0.0498145
0.0445775
0.0393323
0.0340876
0.0288524
0.0236365
0.0184489
0.0133
0.0807112
0.0756706
0.0705798
0.0654443
0.0602702
0.0550642
0.0498335
0.0445862
0.0393305
0.0340752
0.0288292
0.0236023
0.0184037
0.0132436
0.0807953
0.0757439
0.0706423
0.0654962
0.0603114
0.0550948
0.0498536
0.0445956
0.039329
0.0340628
0.0288059
0.023568
0.0183583
0.0131871
0.0808954
0.0758319
0.0707185
0.0655605
0.0603639
0.0551355
0.0498825
0.0446126
0.0393341
0.0340559
0.0287868
0.0235367
0.0183148
0.0131312
0.0809811
0.0759086
0.0707863
0.0656194
0.0604139
0.0551761
0.0499133
0.0446332
0.039344
0.0340543
0.0287732
0.0235102
0.0182747
0.0130769
0.0808922
0.0758258
0.0707098
0.0655492
0.0603498
0.0551177
0.0498598
0.0445836
0.039297
0.0340085
0.0287269
0.0234616
0.018222
0.0130181
0.0108657
0.00645713
0.00210856
-0.00217321
-0.00638198
-0.0105116
-0.0145563
-0.0185107
-0.0223697
-0.0261287
-0.0297832
-0.0333296
-0.0367642
-0.0400843
-0.0432873
-0.0463712
-0.0493343
-0.0521757
-0.0548946
-0.0574907
-0.0599644
-0.0623163
-0.0645472
-0.0666586
-0.0686521
-0.0705297
-0.0722934
-0.0739457
-0.0754892
-0.0769264
-0.0782601
-0.0794933
-0.0806286
-0.081669
-0.0826174
0.0108604
0.00644709
0.00209446
-0.00219075
-0.00640239
-0.0105344
-0.0145812
-0.0185373
-0.0223978
-0.0261581
-0.029814
-0.0333616
-0.0367975
-0.0401188
-0.043323
-0.0464079
-0.0493721
-0.0522144
-0.054934
-0.0575308
-0.060005
-0.0623571
-0.064588
-0.0666992
-0.0686923
-0.0705692
-0.0723322
-0.0739835
-0.0755257
-0.0769617
-0.078294
-0.0795257
-0.0806596
-0.0816985
-0.0826454
0.010849
0.00642404
0.0020603
-0.00223548
-0.00645709
-0.0105984
-0.0146538
-0.0186178
-0.0224855
-0.0262521
-0.0299135
-0.0334658
-0.0369057
-0.04023
-0.0434365
-0.046523
-0.0494879
-0.0523301
-0.0550491
-0.0576446
-0.0601168
-0.0624663
-0.0646944
-0.0668022
-0.0687916
-0.0706645
-0.0724231
-0.0740701
-0.0756079
-0.0770393
-0.0783673
-0.0795946
-0.0807244
-0.0817594
-0.0827027
0.0108347
0.00639781
0.00202247
-0.00228449
-0.00651677
-0.0106682
-0.014733
-0.0187057
-0.0225812
-0.026355
-0.0300226
-0.0335802
-0.0370244
-0.0403524
-0.0435614
-0.0466497
-0.0496156
-0.0524581
-0.0551765
-0.0577708
-0.0602412
-0.0625884
-0.0648136
-0.0669183
-0.0689041
-0.0707732
-0.072528
-0.0741708
-0.0757045
-0.0771319
-0.0784559
-0.0796794
-0.0808055
-0.0818372
-0.0827775
0.0108181
0.00636985
0.00198344
-0.00233419
-0.00657666
-0.0107377
-0.0148116
-0.0187927
-0.0226759
-0.0264565
-0.0301303
-0.0336933
-0.0371421
-0.0404737
-0.0436858
-0.0467762
-0.0497436
-0.0525868
-0.0553054
-0.0578992
-0.0603685
-0.0627143
-0.0649376
-0.0670399
-0.0690231
-0.0708894
-0.0726412
-0.0742809
-0.0758115
-0.0772358
-0.0785567
-0.0797774
-0.0809008
-0.0819301
-0.0828682
0.010799
0.0063395
0.00194209
-0.00238615
-0.00663878
-0.0108095
-0.0148924
-0.0188819
-0.0227729
-0.0265606
-0.0302406
-0.0338092
-0.0372628
-0.0405986
-0.0438139
-0.046907
-0.0498763
-0.0527208
-0.05544
-0.0580339
-0.0605028
-0.0628477
-0.0650697
-0.0671704
-0.0691517
-0.0710158
-0.0727652
-0.0744026
-0.0759307
-0.0773525
-0.0786711
-0.0798896
-0.081011
-0.0820384
-0.0829751
0.0107776
0.00630659
0.00189806
-0.00244092
-0.00670386
-0.0108844
-0.0149765
-0.0189747
-0.0228736
-0.0266686
-0.0303553
-0.0339297
-0.0373885
-0.0407286
-0.0439477
-0.0470438
-0.0500154
-0.0528616
-0.0555819
-0.0581764
-0.0606454
-0.0629898
-0.065211
-0.0673106
-0.0692905
-0.071153
-0.0729007
-0.0745361
-0.0760623
-0.0774823
-0.0787991
-0.0800158
-0.0811358
-0.082162
-0.0830977
0.0107537
0.00627126
0.0018515
-0.00249835
-0.00677173
-0.0109622
-0.0150638
-0.0190707
-0.0229779
-0.0267804
-0.030474
-0.0340545
-0.0375187
-0.0408636
-0.0440867
-0.0471862
-0.0501605
-0.0530088
-0.0557307
-0.0583261
-0.0607957
-0.0631402
-0.0653611
-0.06746
-0.069439
-0.0713005
-0.0730468
-0.0746809
-0.0762058
-0.0776244
-0.0789399
-0.0801555
-0.0812745
-0.0823001
-0.0832354
0.0107277
0.00623362
0.00180256
-0.00255824
-0.00684219
-0.0110427
-0.0151539
-0.0191698
-0.0230854
-0.0268957
-0.0305963
-0.0341833
-0.0376532
-0.0410031
-0.0442306
-0.0473338
-0.0503112
-0.053162
-0.0558858
-0.0584827
-0.0609532
-0.0632983
-0.0655194
-0.0676182
-0.0695968
-0.0714576
-0.0732032
-0.0748365
-0.0763604
-0.0777782
-0.0790929
-0.080308
-0.0814266
-0.082452
-0.0833875
0.0106994
0.00619378
0.00175135
-0.00262051
-0.00691511
-0.0111259
-0.0152467
-0.0192718
-0.023196
-0.0270142
-0.0307221
-0.0343157
-0.0377917
-0.0411469
-0.0443791
-0.0474864
-0.0504672
-0.0533209
-0.0560471
-0.0586458
-0.0611177
-0.0634638
-0.0656855
-0.0677846
-0.0697633
-0.0716239
-0.0733693
-0.0750022
-0.0765258
-0.0779432
-0.0792577
-0.0804727
-0.0815915
-0.0826173
-0.0835534
0.0106692
0.00615182
0.00169794
-0.00268504
-0.0069904
-0.0112115
-0.0153421
-0.0193766
-0.0233095
-0.0271358
-0.0308513
-0.0344518
-0.037934
-0.0412949
-0.0445321
-0.0476437
-0.0506284
-0.0534853
-0.0562142
-0.0588152
-0.0612889
-0.0636363
-0.0658591
-0.067959
-0.0699382
-0.0717992
-0.0735448
-0.0751778
-0.0767015
-0.0781191
-0.0794338
-0.0806492
-0.0817686
-0.0827952
-0.0837325
0.0106369
0.00610782
0.00164242
-0.00275176
-0.00706797
-0.0112995
-0.0154401
-0.019484
-0.0234258
-0.0272605
-0.0309837
-0.0345913
-0.03808
-0.0414468
-0.0446892
-0.0478056
-0.0507944
-0.0536549
-0.0563869
-0.0589905
-0.0614664
-0.0638157
-0.06604
-0.0681411
-0.0701212
-0.071983
-0.0737292
-0.0753628
-0.076887
-0.0783052
-0.0796207
-0.0808369
-0.0819574
-0.0829854
-0.0839243
0.0106027
0.00606186
0.0015849
-0.00282058
-0.00714772
-0.0113898
-0.0155405
-0.019594
-0.0235448
-0.0273881
-0.0311191
-0.0347341
-0.0382296
-0.0416025
-0.0448505
-0.0479718
-0.0509651
-0.0538296
-0.056565
-0.0591716
-0.0616501
-0.0640016
-0.0662278
-0.0683305
-0.070312
-0.072175
-0.0739222
-0.0755568
-0.077082
-0.0785012
-0.0798178
-0.0810354
-0.0821573
-0.0831871
-0.0841282
0.0105667
0.00601403
0.00152543
-0.00289139
-0.00722956
-0.0114822
-0.0156432
-0.0197064
-0.0236665
-0.0275184
-0.0312576
-0.0348801
-0.0383825
-0.0417618
-0.0450157
-0.0481423
-0.0511403
-0.0540091
-0.0567483
-0.0593582
-0.0618396
-0.0641938
-0.0664222
-0.0685268
-0.0705101
-0.0723747
-0.0741234
-0.0757594
-0.077286
-0.0787067
-0.0800248
-0.0812441
-0.082368
-0.0834
-0.0843437
0.010529
0.0059644
0.00146412
-0.00296412
-0.0073134
-0.0115768
-0.0157481
-0.0198211
-0.0237906
-0.0276513
-0.0313988
-0.0350291
-0.0385387
-0.0419246
-0.0451846
-0.0483167
-0.0513198
-0.0541931
-0.0569364
-0.0595501
-0.0620348
-0.0643919
-0.0666229
-0.0687299
-0.0707154
-0.0725819
-0.0743325
-0.0759703
-0.0774986
-0.0789211
-0.0802411
-0.0814625
-0.0825888
-0.0836235
-0.0845702
0.0104896
0.00591305
0.00140104
-0.00303869
-0.00739914
-0.0116734
-0.015855
-0.0199381
-0.023917
-0.0277868
-0.0315427
-0.035181
-0.0386979
-0.0420908
-0.0453571
-0.048495
-0.0515035
-0.0543816
-0.0571293
-0.059747
-0.0622353
-0.0645956
-0.0668297
-0.0689394
-0.0709274
-0.0727962
-0.074549
-0.0761889
-0.0777194
-0.0791441
-0.0804664
-0.0816903
-0.0828193
-0.0838571
-0.0848072
0.0104485
0.00586005
0.00133625
-0.00311501
-0.00748671
-0.0117719
-0.015964
-0.0200572
-0.0240458
-0.0279246
-0.0316893
-0.0353356
-0.0388602
-0.0422601
-0.0455329
-0.048677
-0.051691
-0.0545743
-0.0573267
-0.0599487
-0.0624409
-0.0648049
-0.0670422
-0.069155
-0.0711458
-0.0730174
-0.0747727
-0.0764151
-0.077948
-0.0793752
-0.0807002
-0.081927
-0.083059
-0.0841003
-0.0850542
0.0104059
0.00580547
0.00126985
-0.00319301
-0.00757603
-0.0118722
-0.016075
-0.0201783
-0.0241766
-0.0280648
-0.0318382
-0.0354928
-0.0390252
-0.0424324
-0.0457121
-0.0488624
-0.0518823
-0.054771
-0.0575284
-0.0601549
-0.0626515
-0.0650193
-0.0672603
-0.0693765
-0.0713704
-0.073245
-0.0750031
-0.0766484
-0.0781841
-0.0796142
-0.0809421
-0.0821721
-0.0833075
-0.0843526
-0.0853106
0.0103619
0.00574939
0.00120189
-0.00327261
-0.00766701
-0.0119742
-0.0161877
-0.0203014
-0.0243095
-0.0282071
-0.0319895
-0.0356526
-0.0391929
-0.0426076
-0.0458943
-0.0490512
-0.0520771
-0.0549715
-0.0577342
-0.0603656
-0.0628667
-0.0652387
-0.0674836
-0.0696035
-0.0716009
-0.0734787
-0.0752401
-0.0768884
-0.0784273
-0.0798605
-0.0811917
-0.0824252
-0.0835643
-0.0846136
-0.0855761
0.0103164
0.00569185
0.00113246
-0.00335374
-0.00775958
-0.0120779
-0.0163022
-0.0204262
-0.0244444
-0.0283515
-0.032143
-0.0358147
-0.0393632
-0.0427856
-0.0460795
-0.0492431
-0.0522754
-0.0551757
-0.0579439
-0.0605804
-0.0630863
-0.0654629
-0.0677119
-0.0698358
-0.071837
-0.0737184
-0.0754832
-0.077135
-0.0786771
-0.0801138
-0.0814486
-0.0826859
-0.083829
-0.0848827
-0.0858501
0.0102695
0.00563293
0.0010616
-0.00343633
-0.00785366
-0.0121832
-0.0164183
-0.0205529
-0.0245812
-0.028498
-0.0322986
-0.0359791
-0.039536
-0.0429662
-0.0462675
-0.0494381
-0.0524769
-0.0553833
-0.0581573
-0.0607992
-0.0633102
-0.0656915
-0.0679451
-0.0700731
-0.0720783
-0.0739636
-0.0757322
-0.0773876
-0.0789334
-0.0803738
-0.0817123
-0.0829537
-0.0841011
-0.0851597
-0.0861322
0.0102214
0.0055727
0.0009894
-0.0035203
-0.00794918
-0.01229
-0.016536
-0.0206812
-0.0247197
-0.0286462
-0.0324563
-0.0361457
-0.039711
-0.0431492
-0.0464581
-0.0496359
-0.0526815
-0.0555943
-0.0583742
-0.0610218
-0.0635381
-0.0659244
-0.0681827
-0.0703153
-0.0723248
-0.0742142
-0.0759867
-0.077646
-0.0791957
-0.0806401
-0.0819826
-0.0832284
-0.0843802
-0.0854439
-0.0864218
0.010172
0.0055112
0.000915909
-0.00360561
-0.00804607
-0.0123982
-0.0166553
-0.0208111
-0.0248598
-0.0287963
-0.0326158
-0.0363143
-0.0398882
-0.0433347
-0.0466513
-0.0498365
-0.052889
-0.0558084
-0.0585945
-0.061248
-0.0637698
-0.0661614
-0.0684247
-0.070562
-0.072576
-0.0744698
-0.0762465
-0.07791
-0.0794638
-0.0809123
-0.0822591
-0.0835094
-0.0846659
-0.0857351
-0.0867185
0.0101214
0.0054485
0.000841193
-0.00369217
-0.00814426
-0.0125077
-0.0167759
-0.0209424
-0.0250016
-0.0289481
-0.0327772
-0.0364849
-0.0400676
-0.0435224
-0.046847
-0.0500397
-0.0530994
-0.0560255
-0.0588181
-0.0614776
-0.0640052
-0.0664023
-0.0686708
-0.070813
-0.0728318
-0.0747301
-0.0765113
-0.0781791
-0.0797372
-0.0811902
-0.0825413
-0.0837964
-0.0849578
-0.0860327
-0.0870218
0.0100697
0.00538466
0.000765308
-0.00377992
-0.00824369
-0.0126186
-0.0168979
-0.0210753
-0.0251449
-0.0291014
-0.0329403
-0.0366573
-0.0402489
-0.0437122
-0.0470449
-0.0502453
-0.0533123
-0.0562454
-0.0590446
-0.0617105
-0.064244
-0.0666468
-0.0689207
-0.0710682
-0.0730919
-0.074995
-0.0767808
-0.0784532
-0.0800158
-0.0814733
-0.082829
-0.0840891
-0.0852555
-0.0863364
-0.0873313
0.0100169
0.00531972
0.000688314
-0.00386882
-0.00834429
-0.0127306
-0.0170212
-0.0212094
-0.0252896
-0.0292563
-0.033105
-0.0368314
-0.040432
-0.043904
-0.0472449
-0.0504532
-0.0535278
-0.056468
-0.0592741
-0.0619464
-0.0644862
-0.0668948
-0.0691744
-0.0713272
-0.0733561
-0.0752642
-0.0770548
-0.0787319
-0.0802991
-0.0817613
-0.0831218
-0.084387
-0.0855586
-0.0866457
-0.0876466
0.00996312
0.00525374
0.000610265
-0.00395879
-0.008446
-0.0128439
-0.0171456
-0.0213448
-0.0254356
-0.0294126
-0.0332712
-0.0370072
-0.040617
-0.0440977
-0.0474471
-0.0506634
-0.0537456
-0.0566932
-0.0595062
-0.0621853
-0.0647314
-0.0671461
-0.0694315
-0.0715899
-0.0736241
-0.0755374
-0.077333
-0.0790149
-0.080587
-0.082054
-0.0834194
-0.0846899
-0.0858667
-0.0869602
-0.0879672
0.00990832
0.00518677
0.000531215
-0.00404978
-0.00854876
-0.0129582
-0.0172712
-0.0214814
-0.0255829
-0.0295703
-0.0334389
-0.0371845
-0.0408035
-0.0442932
-0.0476511
-0.0508756
-0.0539657
-0.0569208
-0.059741
-0.0624269
-0.0649795
-0.0674005
-0.0696919
-0.0718561
-0.0738958
-0.0758143
-0.0776151
-0.0793021
-0.080879
-0.082351
-0.0837214
-0.0849972
-0.0861794
-0.0872796
0.00985258
0.00511887
0.000451217
-0.00414174
-0.00865251
-0.0130735
-0.0173979
-0.0216192
-0.0257314
-0.0297292
-0.0336079
-0.0373633
-0.0409917
-0.0444904
-0.047857
-0.0510898
-0.0541879
-0.0571506
-0.0599781
-0.062671
-0.0652304
-0.0676579
-0.0699554
-0.0721255
-0.0741709
-0.0760949
-0.0779009
-0.079593
-0.081175
-0.0826521
-0.0840275
-0.0853088
-0.0864964
0.00979595
0.00505007
0.00037032
-0.00423461
-0.0087572
-0.0131898
-0.0175256
-0.021758
-0.025881
-0.0298894
-0.0337782
-0.0375434
-0.0411814
-0.0446892
-0.0480646
-0.0513059
-0.054412
-0.0573826
-0.0602176
-0.0629177
-0.065484
-0.067918
-0.0702219
-0.072398
-0.0744492
-0.0763788
-0.0781902
-0.0798876
-0.0814746
-0.0829569
-0.0843374
-0.0856243
0.00973847
0.00498042
0.000288574
-0.00432834
-0.00886277
-0.013307
-0.0176542
-0.0218978
-0.0260317
-0.0300506
-0.0339497
-0.0377248
-0.0413724
-0.0448895
-0.0482738
-0.0515237
-0.0546381
-0.0576166
-0.0604592
-0.0631666
-0.0657399
-0.0681807
-0.0704911
-0.0726734
-0.0747305
-0.0766658
-0.0784827
-0.0801854
-0.0817777
-0.0832651
-0.0846508
0.00968018
0.00490998
0.000206025
-0.00442289
-0.00896916
-0.0134251
-0.0177837
-0.0220385
-0.0261834
-0.0302129
-0.0341224
-0.0379075
-0.0415647
-0.0450911
-0.0484845
-0.0517431
-0.0548659
-0.0578524
-0.0607029
-0.0634177
-0.0659982
-0.0684459
-0.0707628
-0.0729515
-0.0750147
-0.0769558
-0.0787783
-0.0804864
-0.0820839
-0.0835766
-0.0849673
0.00962113
0.00483878
0.000122721
-0.00451819
-0.00907633
-0.0135439
-0.0179141
-0.0221801
-0.0263359
-0.0303762
-0.034296
-0.0380912
-0.0417582
-0.0452941
-0.0486966
-0.051964
-0.0550953
-0.0580901
-0.0609484
-0.0636709
-0.0662587
-0.0687134
-0.071037
-0.0732321
-0.0753015
-0.0772485
-0.0790766
-0.0807902
-0.0823929
-0.0838909
0.00956136
0.00476686
3.8706e-05
-0.00461421
-0.00918423
-0.0136635
-0.0180452
-0.0223225
-0.0264893
-0.0305404
-0.0344707
-0.0382761
-0.0419529
-0.0454983
-0.04891
-0.0521864
-0.0553263
-0.0583294
-0.0611957
-0.0639259
-0.0665211
-0.0689829
-0.0713134
-0.0735151
-0.0755907
-0.0775437
-0.0793775
-0.0810966
-0.0827046
0.0095009
0.00469427
-4.59774e-05
-0.0047109
-0.0092928
-0.0137838
-0.018177
-0.0224656
-0.0266436
-0.0307054
-0.0346462
-0.0384618
-0.0421486
-0.0457037
-0.0491247
-0.0524101
-0.0555587
-0.0585702
-0.0614447
-0.0641827
-0.0667855
-0.0692545
-0.071592
-0.0738002
-0.0758822
-0.0778412
-0.0796808
-0.0814054
-0.0830187
0.00943979
0.00462104
-0.000131287
-0.00480821
-0.009402
-0.0139048
-0.0183095
-0.0226094
-0.0267985
-0.0308712
-0.0348226
-0.0386485
-0.0423453
-0.0459101
-0.0493405
-0.052635
-0.0557924
-0.0588125
-0.0616952
-0.0644411
-0.0670515
-0.069528
-0.0718724
-0.0740874
-0.0761758
-0.0781409
-0.0799863
-0.0817164
0.00937807
0.00454722
-0.000217181
-0.0049061
-0.00951178
-0.0140263
-0.0184426
-0.0227539
-0.0269541
-0.0310377
-0.0349997
-0.038836
-0.0425429
-0.0461174
-0.0495573
-0.052861
-0.0560274
-0.0590561
-0.0619471
-0.0647011
-0.0673192
-0.0698031
-0.0721547
-0.0743765
-0.0764713
-0.0784426
-0.0802938
0.00931578
0.00447284
-0.000303622
-0.00500453
-0.00962211
-0.0141484
-0.0185763
-0.022899
-0.0271104
-0.0312049
-0.0351776
-0.0390242
-0.0427412
-0.0463257
-0.0497752
-0.0530881
-0.0562635
-0.0593009
-0.0622003
-0.0649625
-0.0675884
-0.0700798
-0.0724386
-0.0746673
-0.0767686
-0.078746
-0.080603
0.00925294
0.00439794
-0.00039057
-0.00510346
-0.00973293
-0.014271
-0.0187105
-0.0230446
-0.0272671
-0.0313726
-0.035356
-0.0392132
-0.0429404
-0.0465347
-0.0499938
-0.0533162
-0.0565006
-0.0595468
-0.0624548
-0.0652251
-0.067859
-0.070358
-0.072724
-0.0749596
-0.0770675
-0.0790511
0.0091896
0.00432255
-0.000477988
-0.00520285
-0.0098442
-0.014394
-0.0188451
-0.0231906
-0.0274244
-0.0315409
-0.0355351
-0.0394027
-0.0431402
-0.0467445
-0.0502133
-0.0535451
-0.0567387
-0.0597938
-0.0627103
-0.065489
-0.0681308
-0.0706375
-0.0730108
-0.0752534
-0.0773679
0.00912577
0.00424671
-0.000565841
-0.00530267
-0.00995589
-0.0145175
-0.0189802
-0.0233371
-0.0275822
-0.0317097
-0.0357147
-0.0395929
-0.0433406
-0.0469549
-0.0504336
-0.0537748
-0.0569777
-0.0600417
-0.0629669
-0.0657539
-0.0684038
-0.0709182
-0.0732989
-0.0755484
-0.0776695
0.0090615
0.00417045
-0.000654093
-0.00540286
-0.010068
-0.0146413
-0.0191156
-0.023484
-0.0277403
-0.0318789
-0.0358947
-0.0397835
-0.0435416
-0.047166
-0.0506544
-0.0540053
-0.0572174
-0.0602904
-0.0632243
-0.0660198
-0.0686778
-0.0711999
-0.0735881
-0.0758446
0.00899682
0.0040938
-0.00074271
-0.00550341
-0.0101804
-0.0147654
-0.0192514
-0.0236313
-0.0278989
-0.0320485
-0.0360752
-0.0399745
-0.043743
-0.0473776
-0.0508759
-0.0542363
-0.0574578
-0.0605399
-0.0634826
-0.0662865
-0.0689527
-0.0714827
-0.0738783
-0.0761419
0.00893175
0.00401679
-0.000831659
-0.00560426
-0.0102931
-0.0148899
-0.0193875
-0.0237788
-0.0280577
-0.0322184
-0.0362559
-0.040166
-0.0439449
-0.0475896
-0.0510978
-0.054468
-0.0576988
-0.06079
-0.0637416
-0.0665541
-0.0692285
-0.0717663
-0.0741694
0.00886633
0.00393946
-0.000920909
-0.0057054
-0.010406
-0.0150146
-0.0195238
-0.0239266
-0.0282168
-0.0323886
-0.036437
-0.0403578
-0.0441471
-0.047802
-0.0513202
-0.0547001
-0.0579404
-0.0610408
-0.0640012
-0.0668223
-0.069505
-0.0720507
-0.0744612
0.00880057
0.00386182
-0.00101043
-0.00580678
-0.0105192
-0.0151395
-0.0196603
-0.0240746
-0.0283761
-0.032559
-0.0366184
-0.0405498
-0.0443496
-0.0480148
-0.051543
-0.0549326
-0.0581824
-0.061292
-0.0642614
-0.0670911
-0.0697821
-0.0723357
0.00873451
0.00378392
-0.00110019
-0.00590838
-0.0106326
-0.0152646
-0.019797
-0.0242227
-0.0285355
-0.0327296
-0.0367999
-0.0407421
-0.0445524
-0.0482279
-0.0517661
-0.0551655
-0.0584248
-0.0615437
-0.0645221
-0.0673604
-0.0700597
-0.0726212
0.00866818
0.00370578
-0.00119016
-0.00601017
-0.0107462
-0.0153898
-0.0199338
-0.024371
-0.0286951
-0.0329004
-0.0369816
-0.0409345
-0.0447554
-0.0484411
-0.0519895
-0.0553987
-0.0586675
-0.0617957
-0.0647831
-0.0676302
-0.0703378
-0.0729072
0.00860159
0.00362743
-0.00128031
-0.0061121
-0.0108598
-0.0155152
-0.0200708
-0.0245194
-0.0288548
-0.0330712
-0.0371634
-0.0411271
-0.0449585
-0.0486546
-0.052213
-0.055632
-0.0589105
-0.062048
-0.0650445
-0.0679002
-0.0706162
0.00853478
0.00354888
-0.00137061
-0.00621417
-0.0109736
-0.0156406
-0.0202078
-0.0246679
-0.0290146
-0.0332421
-0.0373453
-0.0413197
-0.0451617
-0.0488681
-0.0524366
-0.0558656
-0.0591537
-0.0623006
-0.065306
-0.0681705
-0.0708949
0.00846777
0.00347017
-0.00146105
-0.00631632
-0.0110875
-0.0157661
-0.0203448
-0.0248164
-0.0291744
-0.033413
-0.0375271
-0.0415123
-0.0453649
-0.0490817
-0.0526604
-0.0560992
-0.059397
-0.0625532
-0.0655678
-0.068441
0.00840058
0.00339133
-0.00155158
-0.00641855
-0.0112014
-0.0158916
-0.0204818
-0.0249648
-0.0293341
-0.0335839
-0.037709
-0.041705
-0.0455681
-0.0492953
-0.0528841
-0.0563329
-0.0596403
-0.0628059
-0.0658296
-0.0687116
0.00833322
0.00331236
-0.0016422
-0.00652083
-0.0113153
-0.0160171
-0.0206189
-0.0251132
-0.0294938
-0.0337547
-0.0378908
-0.0418975
-0.0457712
-0.0495088
-0.0531078
-0.0565665
-0.0598836
-0.0630586
-0.0660914
0.00826573
0.00323328
-0.0017329
-0.00662317
-0.0114293
-0.0161427
-0.0207559
-0.0252617
-0.0296536
-0.0339256
-0.0380727
-0.0420902
-0.0459745
-0.0497225
-0.0533317
-0.0568004
-0.0601272
-0.0633116
-0.0663535
0.00819814
0.00315416
-0.0018236
-0.00672547
-0.0115431
-0.0162681
-0.0208929
-0.0254101
-0.0298132
-0.0340964
-0.0382545
-0.0422829
-0.0461779
-0.0499364
-0.0535558
-0.0570345
-0.0603711
-0.063565
-0.0666161
0.0081305
0.00307519
-0.00191394
-0.00682721
-0.0116563
-0.0163926
-0.0210286
-0.025557
-0.0299713
-0.0342655
-0.0384344
-0.0424736
-0.0463791
-0.0501479
-0.0537775
-0.0572662
-0.0606125
-0.0638159
0.00806281
0.00299633
-0.00200394
-0.00692831
-0.0117684
-0.0165157
-0.0211625
-0.0257017
-0.0301265
-0.0344311
-0.0386103
-0.0426596
-0.046575
-0.0503536
-0.0539928
-0.0574908
-0.0608463
-0.0640586
0.00799462
0.00291581
-0.00209676
-0.00703334
-0.0118855
-0.0166448
-0.0213034
-0.0258541
-0.0302903
-0.034606
-0.038796
-0.0428557
-0.0467813
-0.0505697
-0.0542184
-0.0577255
-0.0610897
0.00792534
0.00283095
-0.00219774
-0.00715088
-0.01202
-0.0167963
-0.0214721
-0.0260399
-0.0304931
-0.0348255
-0.0390318
-0.0431074
-0.0470483
-0.0508514
-0.054514
-0.0580344
-0.0614111
0.00785847
0.00275416
-0.0022862
-0.00725268
-0.0121366
-0.016929
-0.0216221
-0.026208
-0.0306799
-0.0350316
-0.0392576
-0.043353
-0.0473139
-0.0511369
-0.0548194
-0.0583594
-0.0617555
)
;

boundaryField
{
    inlet
    {
        type            zeroGradient;
    }
    outlet
    {
        type            fixedValue;
        value           nonuniform 0();
    }
    cylinder
    {
        type            zeroGradient;
    }
    top
    {
        type            symmetryPlane;
    }
    bottom
    {
        type            symmetryPlane;
    }
    defaultFaces
    {
        type            empty;
    }
    procBoundary1to0
    {
        type            processor;
        value           nonuniform List<scalar> 
61
(
0.0838401
0.0839358
0.0840914
0.0842404
0.0843815
0.0845211
0.0846604
0.0847992
0.0849371
0.0850742
0.0852105
0.0853461
0.085481
0.0856152
0.0857486
0.0858813
0.0860134
0.0861447
0.0862754
0.0864054
0.0865347
0.0866634
0.0867914
0.0869187
0.0870454
0.0871714
0.0872968
0.0874215
0.0875455
0.0830232
0.0830232
0.0831357
0.0832475
0.0833585
0.0834688
0.0835783
0.083687
0.083795
0.0839023
0.0840087
0.0841144
0.0842194
0.0843235
0.0844269
0.0845295
0.0846313
0.0847324
0.0848326
0.0849321
0.0850308
0.0851287
0.0852257
0.085322
0.0854176
0.0855123
0.0856055
0.0856967
0.0857919
0.0859043
0.0859991
0.0859047
)
;
    }
    procBoundary1to2
    {
        type            processor;
        value           nonuniform List<scalar> 
27
(
-0.0834766
-0.0835032
-0.0835572
-0.0836293
-0.0837182
-0.0838238
-0.0839458
-0.0840834
-0.0842359
-0.0844028
-0.0845834
-0.0847771
-0.0849834
-0.0852017
-0.0854315
-0.0856723
-0.0859234
-0.0861845
-0.086455