/*--------------------------------*- C++ -*----------------------------------*\
  =========                 |
  \\      /  F ield         | OpenFOAM: The Open Source CFD Toolbox
   \\    /   O peration     | Website:  https://openfoam.org
    \\  /    A nd           | Version:  7
     \\/     M anipulation  |
\*---------------------------------------------------------------------------*/
FoamFile
{
    version     2.0;
    format      ascii;
    class       volVectorField;
    location    "15";
    object      U;
}
// * * * * * * * * * * * * * * * * * * * * * * * * * * * * * * * * * * * * * //

dimensions      [0 1 -1 0 0 0 0];

internalField   nonuniform List<vector> 
2625
(
(1.15017 -0.0474728 8.49656e-21)
(1.15472 -0.0466422 1.57574e-21)
(1.15925 -0.0458251 -1.13428e-21)
(1.16376 -0.0450241 -2.26772e-21)
(1.16824 -0.0442414 2.03416e-21)
(1.17269 -0.0434786 -2.70634e-21)
(1.1771 -0.0427367 1.7634e-21)
(1.18146 -0.0420163 8.79728e-22)
(1.18579 -0.0413172 -2.40926e-22)
(1.19005 -0.0406389 -6.19025e-23)
(1.19427 -0.0399802 2.03272e-23)
(1.19842 -0.0393397 -5.83875e-22)
(1.20251 -0.038715 7.23583e-22)
(1.20653 -0.0381037 -6.68061e-22)
(1.21047 -0.0375026 7.66414e-22)
(1.21435 -0.0369085 5.88079e-22)
(1.21814 -0.0363174 -1.97758e-22)
(1.22185 -0.0357256 4.23543e-21)
(1.11763 -0.000448873 5.90698e-22)
(1.12151 -0.000443246 3.3976e-22)
(1.12545 -0.000437943 -1.22227e-22)
(1.12945 -0.000432953 -1.37976e-22)
(1.1335 -0.000428257 -1.84832e-22)
(1.1376 -0.00042383 -2.38065e-22)
(1.14174 -0.000419646 8.73862e-23)
(1.14592 -0.000415673 1.69029e-22)
(1.15014 -0.000411881 -6.14405e-23)
(1.15437 -0.000408241 7.00642e-23)
(1.15863 -0.000404725 -7.63492e-23)
(1.16288 -0.000401308 4.11883e-23)
(1.16714 -0.00039797 1.05316e-23)
(1.17137 -0.000394694 -7.22512e-24)
(1.17559 -0.000391458 -5.30478e-24)
(1.11763 -0.00136228 -1.04896e-21)
(1.12151 -0.00134393 1.02192e-22)
(1.12546 -0.00132645 8.29429e-23)
(1.12945 -0.00130982 6.1671e-22)
(1.1335 -0.00129401 -1.32962e-22)
(1.1376 -0.00127897 -9.86055e-23)
(1.14175 -0.00126464 -3.48203e-22)
(1.14593 -0.00125095 -2.86774e-22)
(1.15014 -0.00123783 -8.12485e-23)
(1.15438 -0.00122523 5.32293e-23)
(1.15863 -0.00121308 1.19156e-22)
(1.16289 -0.00120133 -8.54205e-23)
(1.16715 -0.00118994 -9.56654e-24)
(1.17138 -0.00117886 1.09666e-23)
(1.1756 -0.00116805 7.71782e-24)
(1.11763 -0.00226699 1.18477e-21)
(1.12151 -0.00223574 4.51404e-22)
(1.12546 -0.00220593 1.14661e-23)
(1.12946 -0.00217753 -4.76455e-22)
(1.13351 -0.00215048 -9.04277e-23)
(1.13761 -0.00212471 -2.27801e-24)
(1.14176 -0.00210011 4.51072e-22)
(1.14594 -0.0020766 2.85505e-22)
(1.15016 -0.00205405 3.82709e-22)
(1.1544 -0.00203236 -1.85954e-22)
(1.15865 -0.00201145 -5.68208e-23)
(1.16291 -0.00199121 1.72141e-22)
(1.16716 -0.00197159 4.16245e-23)
(1.1714 -0.00195251 -4.53931e-23)
(1.17562 -0.00193392 -1.03022e-23)
(1.11762 -0.00315949 -1.00455e-21)
(1.12151 -0.00311548 8.48779e-22)
(1.12546 -0.00307346 -1.18046e-21)
(1.12946 -0.00303339 -3.59842e-22)
(1.13352 -0.00299522 1.08623e-21)
(1.13763 -0.00295882 -6.30867e-22)
(1.14177 -0.00292408 -3.52552e-22)
(1.14596 -0.00289084 1.93635e-22)
(1.15018 -0.00285896 -1.24529e-22)
(1.15442 -0.0028283 2.27346e-22)
(1.15868 -0.00279873 -2.28561e-22)
(1.16294 -0.00277012 -1.43769e-22)
(1.16719 -0.00274238 -9.33509e-23)
(1.17143 -0.00271541 5.02152e-23)
(1.17565 -0.00268913 -1.01971e-23)
(1.11762 -0.00404109 -1.10835e-21)
(1.12151 -0.00398438 2.1085e-21)
(1.12546 -0.0039302 -7.6909e-23)
(1.12947 -0.00387852 4.07865e-22)
(1.13353 -0.00382926 -1.67289e-21)
(1.13764 -0.00378227 5.35904e-22)
(1.14179 -0.0037374 4.21532e-22)
(1.14599 -0.00369446 -1.04675e-21)
(1.15021 -0.00365328 -4.02081e-22)
(1.15445 -0.00361366 -6.81099e-23)
(1.15871 -0.00357545 2.51858e-22)
(1.16297 -0.0035385 -6.33373e-23)
(1.16723 -0.00350267 6.07775e-24)
(1.17147 -0.00346785 -2.2795e-23)
(1.17569 -0.00343395 -1.21191e-24)
(1.11761 -0.00491268 2.41794e-21)
(1.12151 -0.0048433 -3.01012e-21)
(1.12547 -0.00477698 -3.08106e-22)
(1.12948 -0.0047137 -1.20023e-21)
(1.13355 -0.00465335 3.6154e-22)
(1.13766 -0.00459576 -4.91263e-22)
(1.14182 -0.00454074 6.24359e-22)
(1.14601 -0.00448808 1.42417e-21)
(1.15024 -0.00443756 -3.28927e-22)
(1.15449 -0.00438897 3.03323e-22)
(1.15875 -0.0043421 -5.70587e-23)
(1.16301 -0.00429677 -2.39892e-23)
(1.16728 -0.00425284 9.12468e-23)
(1.17152 -0.00421016 -3.49105e-23)
(1.17574 -0.00416862 5.77016e-24)
(1.1176 -0.00577456 -3.52596e-21)
(1.12151 -0.00569256 2.16609e-21)
(1.12547 -0.00561414 6.24293e-22)
(1.12949 -0.00553927 1.13193e-21)
(1.13356 -0.00546782 -2.10121e-22)
(1.13768 -0.00539962 -1.42373e-22)
(1.14185 -0.00533443 -6.57293e-22)
(1.14605 -0.00527202 -4.58975e-22)
(1.15028 -0.00521213 2.95729e-22)
(1.15453 -0.00515451 -1.8193e-22)
(1.15879 -0.00509894 -2.63794e-22)
(1.16306 -0.00504521 1.02364e-22)
(1.16733 -0.00499314 -3.62319e-23)
(1.17158 -0.00494257 1.69624e-23)
(1.1758 -0.00489336 1.43564e-23)
(1.1176 -0.006627 2.44038e-21)
(1.12151 -0.00653243 -1.67744e-21)
(1.12548 -0.00644194 -2.91524e-21)
(1.1295 -0.00635549 1.68462e-21)
(1.13358 -0.00627295 -1.24931e-21)
(1.13771 -0.00619411 -6.5887e-22)
(1.14188 -0.00611873 1.8043e-21)
(1.14608 -0.00604653 7.91299e-22)
(1.15032 -0.00597723 -5.44457e-23)
(1.15458 -0.00591055 8.85129e-24)
(1.15885 -0.00584623 3.92794e-22)
(1.16312 -0.00578404 -7.97545e-23)
(1.16739 -0.00572379 3.63322e-24)
(1.17164 -0.0056653 8.3895e-24)
(1.17586 -0.0056084 -8.37552e-24)
(1.11759 -0.00747026 1.77931e-21)
(1.12151 -0.00736318 -6.17497e-22)
(1.12548 -0.00726066 1.37322e-21)
(1.12952 -0.00716265 -2.15199e-21)
(1.13361 -0.00706901 3.47772e-21)
(1.13774 -0.00697953 5.2237e-22)
(1.14192 -0.00689392 -1.74606e-21)
(1.14613 -0.00681189 -7.90248e-23)
(1.15037 -0.00673312 5.00767e-22)
(1.15463 -0.00665732 -6.2448e-22)
(1.1589 -0.0065842 6.19116e-23)
(1.16318 -0.0065135 1.1428e-22)
(1.16745 -0.00644502 8.68854e-23)
(1.17171 -0.00637856 -2.93915e-23)
(1.17593 -0.00631393 4.25388e-24)
(1.11758 -0.00830461 2.70728e-21)
(1.12151 -0.00818508 -4.01967e-21)
(1.12549 -0.00807056 2.46344e-21)
(1.12954 -0.00796101 1.87105e-21)
(1.13363 -0.00785628 -2.0303e-21)
(1.13777 -0.00775612 -9.47862e-22)
(1.14195 -0.00766025 -9.50746e-22)
(1.14617 -0.00756834 -1.83386e-21)
(1.15042 -0.00748005 -4.61522e-22)
(1.15469 -0.00739506 5.09052e-22)
(1.15897 -0.00731308 1.26956e-22)
(1.16325 -0.00723381 -6.3802e-23)
(1.16752 -0.00715704 -4.42188e-23)
(1.17178 -0.00708254 -3.51839e-23)
(1.17601 -0.00701014 1.14702e-23)
(1.11757 -0.0091303 3.21391e-22)
(1.12151 -0.00899839 2.34187e-21)
(1.1255 -0.00887192 6.66729e-22)
(1.12955 -0.00875084 -2.12715e-22)
(1.13366 -0.008635 -4.99635e-23)
(1.13781 -0.00852414 1.60519e-21)
(1.142 -0.00841797 7.28386e-22)
(1.14622 -0.00831612 2.32566e-21)
(1.15048 -0.00821825 6.48034e-24)
(1.15475 -0.00812401 -1.42607e-24)
(1.15904 -0.00803308 -3.91779e-22)
(1.16332 -0.00794518 -1.11076e-22)
(1.1676 -0.00786005 2.03925e-23)
(1.17186 -0.00777746 8.88116e-23)
(1.1761 -0.00769721 -5.42403e-23)
(1.11756 -0.00994758 -4.66704e-21)
(1.12151 -0.00980335 5.05184e-21)
(1.12551 -0.00966495 -5.02206e-22)
(1.12957 -0.00953236 -1.66469e-22)
(1.13369 -0.0094054 5.77409e-22)
(1.13784 -0.00928382 1.67571e-22)
(1.14204 -0.00916729 7.66611e-22)
(1.14628 -0.00905545 -1.45641e-21)
(1.15054 -0.00894793 9.42423e-22)
(1.15482 -0.00884436 -7.38991e-22)
(1.15911 -0.00874441 1.64583e-22)
(1.1634 -0.00864779 3.8436e-22)
(1.16769 -0.00855422 6.26989e-23)
(1.17195 -0.00846347 1.08182e-22)
(1.17619 -0.00837533 9.55534e-24)
(1.11755 -0.0107567 -3.27123e-22)
(1.12151 -0.0106002 -8.0851e-21)
(1.12552 -0.0104499 -4.45866e-21)
(1.12959 -0.0103058 -5.52498e-21)
(1.13372 -0.0101677 -7.89852e-22)
(1.13788 -0.0100354 1.18732e-21)
(1.14209 -0.00990844 7.76999e-22)
(1.14633 -0.00978654 1.12426e-21)
(1.1506 -0.00966929 -1.63553e-21)
(1.15489 -0.00955631 1.16149e-21)
(1.15919 -0.00944726 2.28745e-22)
(1.16349 -0.00934183 -3.12825e-22)
(1.16777 -0.00923975 -9.87822e-23)
(1.17204 -0.00914077 -1.53588e-22)
(1.17629 -0.00904466 -1.30832e-23)
(1.11754 -0.0115578 2.73199e-21)
(1.12151 -0.0113891 8.66053e-21)
(1.12554 -0.011227 4.2244e-21)
(1.12962 -0.0110714 7.51105e-23)
(1.13375 -0.0109221 4.66799e-21)
(1.13793 -0.010779 -2.08839e-21)
(1.14214 -0.0106416 -2.31345e-21)
(1.1464 -0.0105096 3.87115e-22)
(1.15067 -0.0103825 7.63125e-22)
(1.15497 -0.01026 -1.85853e-21)
(1.15927 -0.0101418 -3.16895e-22)
(1.16357 -0.0100275 -1.69477e-22)
(1.16787 -0.0099168 -4.09177e-24)
(1.17214 -0.0098095 1.73801e-23)
(1.17639 -0.00970535 2.86645e-23)
(1.11753 -0.0123511 -3.57573e-21)
(1.12151 -0.0121703 -3.2758e-21)
(1.12555 -0.0119964 3.77259e-21)
(1.12964 -0.0118293 5.8265e-21)
(1.13379 -0.0116689 -2.55569e-21)
(1.13797 -0.0115149 -5.92484e-22)
(1.1422 -0.011367 -5.85258e-22)
(1.14646 -0.0112247 3.2566e-22)
(1.15074 -0.0110878 -1.872e-22)
(1.15505 -0.0109557 1.23988e-21)
(1.15936 -0.0108282 -3.53036e-22)
(1.16367 -0.0107049 2.53266e-22)
(1.16797 -0.0105855 -1.29722e-22)
(1.17224 -0.0104698 6.07774e-23)
(1.17649 -0.0103576 -1.79914e-23)
(1.11752 -0.0131368 -5.76711e-22)
(1.12152 -0.012944 3.07615e-21)
(1.12557 -0.0127583 -8.68718e-21)
(1.12967 -0.0125797 1.0876e-21)
(1.13382 -0.0124081 2.92804e-22)
(1.13802 -0.0122432 5.28575e-22)
(1.14226 -0.0120847 -9.58983e-22)
(1.14653 -0.0119322 -3.00309e-21)
(1.15082 -0.0117853 1.46812e-21)
(1.15513 -0.0116435 -2.08934e-22)
(1.15945 -0.0115066 1.06806e-21)
(1.16376 -0.0113742 -1.55502e-22)
(1.16807 -0.0112461 6.95228e-23)
(1.17235 -0.0111219 -3.66044e-23)
(1.1766 -0.0110014 -5.12684e-24)
(1.11752 -0.0139151 4.99796e-21)
(1.12152 -0.0137103 -4.53295e-21)
(1.12558 -0.0135128 5.28282e-21)
(1.1297 -0.0133228 -9.85508e-22)
(1.13387 -0.01314 -4.61859e-21)
(1.13807 -0.0129642 3.2577e-21)
(1.14232 -0.012795 1.96813e-21)
(1.1466 -0.0126321 7.18553e-22)
(1.1509 -0.0124751 -2.02268e-21)
(1.15522 -0.0123236 1.1615e-21)
(1.15954 -0.0121772 -1.66321e-21)
(1.16386 -0.0120356 1.23951e-22)
(1.16817 -0.0118986 6.79262e-23)
(1.17246 -0.0117659 1.48733e-22)
(1.17672 -0.0116371 -4.30603e-23)
(1.11751 -0.0146863 -3.94652e-21)
(1.12153 -0.0144695 1.46435e-21)
(1.1256 -0.0142603 -3.06438e-21)
(1.12973 -0.0140587 -4.36587e-21)
(1.13391 -0.0138647 2.66391e-21)
(1.13813 -0.0136778 -2.08072e-21)
(1.14238 -0.013498 1.22538e-21)
(1.14667 -0.0133246 3.51319e-22)
(1.15098 -0.0131574 6.00655e-24)
(1.15531 -0.012996 -3.95472e-22)
(1.15964 -0.0128401 1.13238e-21)
(1.16397 -0.0126892 -2.09618e-22)
(1.16828 -0.0125433 -2.28616e-23)
(1.17258 -0.0124018 -2.94752e-22)
(1.17684 -0.0122648 2.05544e-23)
(1.11751 -0.0154503 1.31317e-21)
(1.12154 -0.0152216 3.91102e-22)
(1.12563 -0.0150007 -2.43719e-21)
(1.12977 -0.0147877 1.02024e-21)
(1.13395 -0.0145823 2.06707e-21)
(1.13819 -0.0143844 -2.43241e-21)
(1.14245 -0.0141937 -2.33362e-21)
(1.14675 -0.0140099 1.06367e-21)
(1.15107 -0.0138324 -1.38175e-22)
(1.1554 -0.013661 5.29781e-22)
(1.15974 -0.0134954 -1.00022e-21)
(1.16407 -0.0133352 -8.64534e-23)
(1.1684 -0.0131801 8.06639e-23)
(1.17269 -0.01303 2.59116e-22)
(1.17696 -0.0128845 8.75977e-24)
(1.11751 -0.0162075 2.87496e-21)
(1.12155 -0.0159669 3.11592e-21)
(1.12565 -0.0157343 8.63133e-21)
(1.1298 -0.0155097 -1.42427e-21)
(1.134 -0.0152931 -2.42259e-23)
(1.13824 -0.0150841 6.10206e-21)
(1.14252 -0.0148825 -8.47148e-22)
(1.14683 -0.014688 6.96034e-22)
(1.15116 -0.0145001 1.66104e-21)
(1.1555 -0.0143187 -8.49431e-22)
(1.15984 -0.0141432 2.20149e-22)
(1.16418 -0.0139736 3.1224e-22)
(1.16851 -0.0138093 -6.65815e-23)
(1.17282 -0.0136504 -6.42212e-23)
(1.17709 -0.0134963 9.30551e-23)
(1.11751 -0.0169579 -1.59061e-21)
(1.12156 -0.0167056 6.2363e-21)
(1.12568 -0.0164613 -3.19301e-21)
(1.12984 -0.0162251 2.07628e-21)
(1.13405 -0.015997 1.46232e-21)
(1.13831 -0.0157769 -1.29022e-21)
(1.1426 -0.0155643 6.42676e-23)
(1.14691 -0.015359 -1.81856e-21)
(1.15125 -0.0151608 -2.70704e-21)
(1.1556 -0.0149691 -2.67076e-22)
(1.15995 -0.0147838 1.37429e-21)
(1.1643 -0.0146045 1.34633e-22)
(1.16863 -0.014431 -3.51364e-22)
(1.17294 -0.0142631 -1.09763e-22)
(1.17721 -0.0141005 -2.07905e-23)
(1.11751 -0.0177018 -3.55837e-21)
(1.12158 -0.0174376 -1.02804e-20)
(1.12571 -0.0171816 -3.27375e-21)
(1.12988 -0.0169339 1.26427e-21)
(1.13411 -0.0166944 -7.11059e-21)
(1.13837 -0.0164629 -1.5109e-21)
(1.14267 -0.0162393 2.17223e-21)
(1.147 -0.0160232 2.60267e-21)
(1.15134 -0.0158143 1.41881e-21)
(1.1557 -0.0156124 4.17354e-22)
(1.16006 -0.0154171 -8.90595e-22)
(1.16442 -0.0152281 1.16678e-22)
(1.16875 -0.0150453 7.29401e-22)
(1.17307 -0.0148684 1.38952e-22)
(1.17735 -0.0146971 -3.27512e-23)
(1.11751 -0.0184392 4.52548e-21)
(1.1216 -0.0181632 -5.29153e-21)
(1.12574 -0.0178955 2.1653e-21)
(1.12993 -0.0176362 -2.53459e-21)
(1.13416 -0.0173852 6.46042e-21)
(1.13844 -0.0171424 -2.76391e-21)
(1.14275 -0.0169076 2.6388e-21)
(1.14709 -0.0166806 -3.73812e-21)
(1.15144 -0.016461 1.91043e-21)
(1.15581 -0.0162487 2.305e-22)
(1.16017 -0.0160432 7.48951e-22)
(1.16453 -0.0158445 -3.37754e-22)
(1.16888 -0.0156523 -4.62672e-22)
(1.1732 -0.0154662 -2.49982e-22)
(1.17748 -0.0152862 3.64392e-23)
(1.11752 -0.0191703 -5.4594e-21)
(1.12162 -0.0188826 -2.94739e-21)
(1.12577 -0.0186031 4.99191e-21)
(1.12997 -0.0183321 1.86266e-21)
(1.13422 -0.0180695 -3.78629e-21)
(1.13851 -0.0178153 6.00964e-22)
(1.14283 -0.0175693 -2.97837e-21)
(1.14718 -0.0173312 4.16743e-21)
(1.15154 -0.0171009 -1.81324e-21)
(1.15591 -0.016878 -1.23164e-21)
(1.16029 -0.0166624 -8.19969e-22)
(1.16466 -0.0164538 -5.19738e-22)
(1.16901 -0.016252 2.61231e-22)
(1.17333 -0.0160568 2.74474e-22)
(1.17762 -0.015868 -6.30575e-23)
(1.11753 -0.0198952 2.50673e-21)
(1.12164 -0.0195957 1.74529e-20)
(1.12581 -0.0193045 -1.21626e-20)
(1.13002 -0.0190218 -8.43332e-21)
(1.13428 -0.0187476 -2.14234e-21)
(1.13858 -0.0184818 -1.86828e-21)
(1.14291 -0.0182245 2.50387e-21)
(1.14727 -0.0179753 -4.67894e-21)
(1.15164 -0.017734 -1.2552e-21)
(1.15603 -0.0175005 8.80811e-22)
(1.16041 -0.0172746 4.25678e-22)
(1.16478 -0.017056 5.51685e-23)
(1.16914 -0.0168446 -3.0027e-22)
(1.17346 -0.0166401 -3.88793e-22)
(1.17776 -0.0164424 -2.27799e-23)
(1.11754 -0.020614 4.99526e-22)
(1.12166 -0.0203028 -1.01049e-20)
(1.12584 -0.0199998 -3.2295e-23)
(1.13007 -0.0197053 1.67202e-20)
(1.13435 -0.0194194 5.24316e-21)
(1.13866 -0.0191421 5.75363e-21)
(1.143 -0.0188732 -4.19968e-22)
(1.14737 -0.0186128 1.99107e-21)
(1.15175 -0.0183605 -6.55708e-22)
(1.15614 -0.0181163 -6.65246e-22)
(1.16053 -0.0178799 -6.25086e-22)
(1.16491 -0.0176513 1.19066e-21)
(1.16927 -0.0174301 1.37476e-22)
(1.1736 -0.0172164 2.39692e-22)
(1.1779 -0.0170097 5.20782e-23)
(1.11755 -0.0213269 2.77417e-21)
(1.12169 -0.021004 2.16669e-21)
(1.12589 -0.0206891 5.75342e-21)
(1.13013 -0.0203828 -8.09133e-21)
(1.13442 -0.020085 -1.55798e-21)
(1.13874 -0.019796 -1.56342e-21)
(1.14309 -0.0195156 -1.48141e-21)
(1.14747 -0.0192438 4.56653e-22)
(1.15186 -0.0189805 8.79422e-22)
(1.15625 -0.0187254 2.05581e-21)
(1.16065 -0.0184785 1.5432e-21)
(1.16503 -0.0182397 -3.17279e-22)
(1.1694 -0.0180088 2.05846e-22)
(1.17374 -0.0177856 9.12173e-23)
(1.17804 -0.0175699 -2.14633e-23)
(1.11757 -0.022034 1.62489e-21)
(1.12172 -0.0216992 3.38125e-22)
(1.12593 -0.0213725 4.67853e-21)
(1.13019 -0.0210542 -2.99692e-21)
(1.13448 -0.0207446 6.9554e-21)
(1.13882 -0.0204438 1.404e-21)
(1.14318 -0.0201518 2.86052e-21)
(1.14757 -0.0198685 2.02823e-22)
(1.15197 -0.0195939 1.3269e-21)
(1.15637 -0.0193279 -2.57394e-21)
(1.16077 -0.0190704 -1.32545e-21)
(1.16517 -0.0188213 -4.00703e-22)
(1.16954 -0.0185805 1.12115e-22)
(1.17388 -0.0183478 1.06983e-22)
(1.17818 -0.0181231 2.90425e-25)
(1.11759 -0.0227354 1.32361e-21)
(1.12176 -0.0223888 -7.79192e-21)
(1.12598 -0.0220501 2.44973e-21)
(1.13025 -0.0217198 1.22182e-20)
(1.13456 -0.0213983 -1.49095e-20)
(1.1389 -0.0210855 -1.78631e-21)
(1.14328 -0.0207817 -1.71768e-21)
(1.14767 -0.0204869 -1.65096e-21)
(1.15208 -0.0202009 1.46063e-21)
(1.15649 -0.0199239 -3.82873e-22)
(1.1609 -0.0196556 3.60636e-22)
(1.1653 -0.0193962 9.26567e-22)
(1.16967 -0.0191455 -7.44269e-22)
(1.17402 -0.0189033 -8.12116e-23)
(1.17833 -0.0186694 -2.9241e-23)
(1.1218 -0.0230727 9.35949e-21)
(1.12603 -0.022722 4.08076e-21)
(1.13031 -0.0223796 -5.8303e-21)
(1.13463 -0.022046 1.26873e-20)
(1.13899 -0.0217212 -1.51137e-21)
(1.14337 -0.0214055 -3.80644e-21)
(1.14778 -0.021099 2.43229e-22)
(1.15219 -0.0208016 -1.74947e-21)
(1.15661 -0.0205134 1.92185e-22)
(1.16103 -0.0202343 -3.36629e-22)
(1.16543 -0.0199645 -1.41888e-21)
(1.16981 -0.0197037 -1.22267e-22)
(1.17416 -0.0194519 -2.65149e-22)
(1.17847 -0.0192089 8.00473e-23)
(1.12184 -0.023751 -1.77809e-21)
(1.12608 -0.0233882 -8.32018e-21)
(1.13038 -0.0230337 -3.86261e-22)
(1.13471 -0.0226878 3.41548e-21)
(1.13908 -0.0223509 -6.42537e-21)
(1.14347 -0.0220232 2.59465e-21)
(1.14788 -0.0217049 2.44482e-21)
(1.15231 -0.0213959 -5.60936e-22)
(1.15673 -0.0210965 2.41026e-21)
(1.16116 -0.0208065 -2.86054e-22)
(1.16557 -0.0205262 -2.90727e-22)
(1.16995 -0.0202553 8.65903e-22)
(1.17431 -0.0199938 3.05667e-22)
(1.17862 -0.0197416 -1.26058e-23)
(1.12188 -0.0244238 5.43084e-23)
(1.12614 -0.0240488 -8.78378e-21)
(1.13045 -0.023682 -4.36449e-21)
(1.13479 -0.0233239 -4.12478e-21)
(1.13917 -0.0229747 8.52044e-22)
(1.14357 -0.0226349 3.49764e-21)
(1.14799 -0.0223046 -8.79859e-22)
(1.15243 -0.021984 7.01713e-22)
(1.15686 -0.0216732 1.08169e-21)
(1.16129 -0.0213723 4.64312e-22)
(1.1657 -0.0210813 9.29842e-22)
(1.17009 -0.0208003 -5.86404e-22)
(1.17445 -0.0205291 -5.36804e-23)
(1.17877 -0.0202676 3.54062e-23)
(1.12193 -0.0250912 3.84917e-21)
(1.1262 -0.0247039 1.06611e-21)
(1.13052 -0.0243247 6.77631e-21)
(1.13488 -0.0239542 -5.09279e-21)
(1.13926 -0.0235927 2.51941e-21)
(1.14368 -0.0232407 -1.80267e-21)
(1.14811 -0.0228983 -1.76574e-21)
(1.15255 -0.022566 1.24975e-21)
(1.15699 -0.0222437 -4.25622e-21)
(1.16142 -0.0219317 1.37679e-21)
(1.16584 -0.0216301 -4.72069e-22)
(1.17023 -0.0213388 6.10508e-22)
(1.1746 -0.0210579 -1.16731e-22)
(1.17892 -0.0207871 -2.8605e-23)
(1.12198 -0.0257533 6.63059e-21)
(1.12627 -0.0253536 4.16947e-21)
(1.1306 -0.0249619 -8.36567e-21)
(1.13496 -0.0245788 5.51366e-21)
(1.13936 -0.0242049 4.47432e-21)
(1.14378 -0.0238405 -6.44579e-22)
(1.14822 -0.023486 4.1762e-22)
(1.15267 -0.0231418 5.43369e-22)
(1.15711 -0.022808 1.61116e-21)
(1.16155 -0.0224848 -1.89833e-21)
(1.16598 -0.0221724 7.72273e-22)
(1.17038 -0.0218709 -3.97292e-22)
(1.17474 -0.0215802 1.85413e-22)
(1.17907 -0.0213 -4.07724e-23)
(1.12203 -0.0264101 -1.63631e-20)
(1.12633 -0.0259979 4.37912e-22)
(1.13067 -0.0255936 1.18075e-20)
(1.13505 -0.0251978 2.58307e-21)
(1.13946 -0.0248113 -2.90549e-22)
(1.14389 -0.0244344 -3.05515e-21)
(1.14834 -0.0240677 1.73461e-21)
(1.15279 -0.0237115 -2.59371e-21)
(1.15724 -0.023366 -1.86725e-21)
(1.16169 -0.0230317 4.81999e-23)
(1.16612 -0.0227085 -7.21293e-22)
(1.17052 -0.0223966 6.05234e-22)
(1.17489 -0.022096 -6.57436e-23)
(1.17922 -0.0218065 -3.18123e-24)
(1.12209 -0.0270617 -4.37846e-21)
(1.1264 -0.0266369 2.65798e-21)
(1.13076 -0.0262198 -2.20529e-21)
(1.13514 -0.0258112 -1.55294e-20)
(1.13956 -0.025412 -1.84323e-21)
(1.144 -0.0250225 -1.11334e-21)
(1.14845 -0.0246434 5.94108e-22)
(1.15292 -0.0242751 1.66018e-21)
(1.15738 -0.023918 6.92342e-22)
(1.16183 -0.0235723 5.63043e-22)
(1.16626 -0.0232383 -9.97132e-23)
(1.17067 -0.022916 -5.9076e-22)
(1.17504 -0.0226056 -6.49072e-23)
(1.17937 -0.0223067 6.10442e-23)
(1.12215 -0.0277082 1.58338e-20)
(1.12648 -0.0272706 -2.99818e-21)
(1.13084 -0.0268406 -4.94476e-21)
(1.13524 -0.0264191 1.46973e-20)
(1.13967 -0.026007 1.03088e-21)
(1.14411 -0.0256048 8.97198e-21)
(1.14857 -0.0252133 -2.31835e-21)
(1.15304 -0.0248328 -1.65247e-21)
(1.15751 -0.0244638 5.03723e-22)
(1.16196 -0.0241068 1.06058e-21)
(1.1664 -0.0237618 2.31577e-22)
(1.17081 -0.0234292 1.18405e-24)
(1.17519 -0.0231088 2.00954e-22)
(1.17952 -0.0228006 -2.41452e-23)
(1.12222 -0.0283496 -4.16468e-21)
(1.12655 -0.027899 -3.18333e-21)
(1.13093 -0.027456 2.71006e-21)
(1.13534 -0.0270215 -9.19591e-21)
(1.13977 -0.0265963 1.96111e-21)
(1.14423 -0.0261814 -3.18131e-21)
(1.1487 -0.0257772 -9.13574e-22)
(1.15317 -0.0253845 3.33993e-22)
(1.15764 -0.0250037 -1.3247e-21)
(1.1621 -0.0246352 -7.46351e-22)
(1.16654 -0.0242793 6.61901e-23)
(1.17095 -0.0239361 1.84674e-22)
(1.17533 -0.0236058 -4.18946e-22)
(1.17967 -0.0232882 1.08211e-23)
(1.12229 -0.0289859 -4.38066e-21)
(1.12663 -0.0285223 1.10208e-20)
(1.13102 -0.0280661 -2.75974e-21)
(1.13544 -0.0276184 1.01249e-20)
(1.13988 -0.0271801 2.89815e-21)
(1.14434 -0.0267522 -8.03479e-21)
(1.14882 -0.0263354 1.94794e-21)
(1.1533 -0.0259303 -1.92051e-21)
(1.15777 -0.0255375 4.44867e-21)
(1.16224 -0.0251575 -1.5034e-21)
(1.16668 -0.0247906 6.66537e-22)
(1.1711 -0.024437 2.9652e-22)
(1.17548 -0.0240967 3.9032e-22)
(1.17982 -0.0237697 -2.62134e-23)
(1.12236 -0.0296172 9.83237e-21)
(1.12672 -0.0291404 -7.56659e-21)
(1.13111 -0.0286709 -3.94746e-21)
(1.13554 -0.0282098 -2.54792e-21)
(1.13999 -0.0277583 -2.37055e-22)
(1.14446 -0.0273173 4.7781e-21)
(1.14894 -0.0268877 -3.0112e-22)
(1.15343 -0.0264702 2.27791e-21)
(1.15791 -0.0260654 -2.26463e-22)
(1.16238 -0.0256738 1.23869e-21)
(1.16683 -0.0252958 -1.05528e-21)
(1.17125 -0.0249317 -5.9738e-22)
(1.17563 -0.0245815 -9.85939e-23)
(1.17997 -0.0242451 -2.54295e-23)
(1.12244 -0.0302436 -2.46787e-21)
(1.12681 -0.0297534 3.85812e-21)
(1.13121 -0.0292704 1.03052e-20)
(1.13565 -0.0287959 -6.53083e-21)
(1.14011 -0.028331 8.93873e-22)
(1.14458 -0.0278768 7.37657e-21)
(1.14907 -0.0274343 1.07603e-21)
(1.15356 -0.0270043 -4.87683e-22)
(1.15805 -0.0265874 -1.87811e-21)
(1.16252 -0.0261842 -1.96304e-22)
(1.16697 -0.0257951 -7.33259e-23)
(1.17139 -0.0254205 -2.68677e-24)
(1.17578 -0.0250603 -2.60024e-22)
(1.18012 -0.0247144 -4.31331e-23)
(1.12252 -0.0308651 -5.34035e-21)
(1.1269 -0.0303614 -1.86789e-21)
(1.13131 -0.0298647 -1.20555e-20)
(1.13575 -0.0293765 7.51984e-21)
(1.14022 -0.0288981 -9.84995e-21)
(1.14471 -0.0284307 -5.14687e-21)
(1.1492 -0.0279752 1.06958e-21)
(1.15369 -0.0275325 2.54129e-21)
(1.15818 -0.0271035 -4.97293e-22)
(1.16266 -0.0266886 4.62593e-22)
(1.16711 -0.0262884 5.56987e-22)
(1.17154 -0.0259033 -3.51375e-23)
(1.17592 -0.0255331 3.29449e-22)
(1.18027 -0.0251779 1.26646e-22)
(1.1226 -0.0314817 5.49189e-21)
(1.12699 -0.0309642 -2.3078e-21)
(1.13141 -0.0304537 3.28488e-21)
(1.13587 -0.0299518 -4.36446e-21)
(1.14034 -0.0294598 6.56044e-21)
(1.14483 -0.0289789 -4.95932e-21)
(1.14933 -0.0285103 -5.44706e-21)
(1.15383 -0.028055 5.30588e-23)
(1.15832 -0.0276137 -9.12296e-22)
(1.1628 -0.0271872 -3.81723e-22)
(1.16725 -0.0267759 -3.80988e-22)
(1.17168 -0.0263801 -3.90391e-22)
(1.17607 -0.026 -7.13192e-23)
(1.18042 -0.0256354 -1.01458e-22)
(1.12269 -0.0320934 7.92413e-22)
(1.12709 -0.0315621 3.86451e-21)
(1.13152 -0.0310376 -3.62219e-22)
(1.13598 -0.0305217 3.20339e-21)
(1.14046 -0.030016 -1.57676e-21)
(1.14496 -0.0295216 5.99228e-21)
(1.14946 -0.0290398 4.72303e-21)
(1.15396 -0.0285717 -2.92449e-21)
(1.15846 -0.0281182 -4.11356e-22)
(1.16294 -0.0276799 -3.8677e-22)
(1.1674 -0.0272575 8.63922e-22)
(1.17183 -0.0268512 -7.50885e-23)
(1.17622 -0.0264611 -1.38374e-22)
(1.18056 -0.0260871 8.05714e-23)
(1.12278 -0.0327004 -9.4394e-21)
(1.12719 -0.0321549 -4.23684e-21)
(1.13163 -0.0316163 4.70898e-21)
(1.13609 -0.0310864 -6.2054e-21)
(1.14058 -0.0305667 -4.03032e-21)
(1.14508 -0.0300587 -6.17429e-21)
(1.14959 -0.0295637 -2.37998e-21)
(1.1541 -0.0290828 1.87339e-21)
(1.1586 -0.0286169 1.49158e-21)
(1.16308 -0.0281669 3.85788e-22)
(1.16754 -0.0277333 2.34585e-22)
(1.17197 -0.0273164 1.03227e-21)
(1.17636 -0.0269164 9.80644e-23)
(1.18071 -0.0265331 -8.5026e-23)
(1.12288 -0.0333025 7.76419e-21)
(1.12729 -0.0327427 4.42154e-21)
(1.13174 -0.0321899 -9.63724e-21)
(1.13621 -0.0316457 1.13003e-22)
(1.14071 -0.031112 7.09493e-22)
(1.14521 -0.0305903 1.00346e-20)
(1.14972 -0.0300819 -5.45463e-22)
(1.15423 -0.0295881 5.54216e-22)
(1.15873 -0.0291099 7.79072e-22)
(1.16322 -0.0286481 -1.05792e-21)
(1.16768 -0.0282033 -2.02791e-21)
(1.17212 -0.0277759 -7.39785e-22)
(1.17651 -0.0273659 9.71674e-23)
(1.18086 -0.0269734 5.74001e-23)
(1.12298 -0.0338998 2.1293e-21)
(1.1274 -0.0333256 6.67227e-21)
(1.13185 -0.0327583 7.28891e-21)
(1.13633 -0.0321997 -4.45888e-22)
(1.14083 -0.0316519 -2.97557e-21)
(1.14534 -0.0311164 -1.01062e-21)
(1.14986 -0.0305946 2.77714e-21)
(1.15437 -0.0300879 1.17876e-21)
(1.15887 -0.0295973 -7.82803e-22)
(1.16336 -0.0291236 1.74526e-21)
(1.16783 -0.0286676 7.83757e-22)
(1.17226 -0.0282297 1.43711e-22)
(1.17665 -0.0278098 -1.7404e-22)
(1.181 -0.027408 -7.1634e-23)
(1.12308 -0.0344924 -1.78344e-21)
(1.12751 -0.0339036 -7.43415e-21)
(1.13197 -0.0333215 1.9709e-21)
(1.13646 -0.0327485 1.02054e-21)
(1.14096 -0.0321864 7.40509e-21)
(1.14547 -0.031637 -6.3406e-21)
(1.14999 -0.0311017 8.18367e-23)
(1.15451 -0.030582 -1.26055e-21)
(1.15901 -0.0300789 2.92278e-22)
(1.1635 -0.0295935 1.0413e-21)
(1.16797 -0.0291263 9.61976e-23)
(1.1724 -0.0286778 7.68301e-22)
(1.1768 -0.0282481 1.37563e-22)
(1.18115 -0.0278371 1.53019e-22)
(1.12319 -0.0350803 -1.26009e-20)
(1.12762 -0.0344765 2.07871e-21)
(1.13209 -0.0338797 -6.49995e-21)
(1.13658 -0.033292 5.38798e-21)
(1.14109 -0.0327155 -1.1281e-22)
(1.1456 -0.0321521 8.75751e-22)
(1.15013 -0.0316032 2.36627e-21)
(1.15464 -0.0310705 -4.00102e-22)
(1.15915 -0.030555 1.05508e-21)
(1.16364 -0.0300577 -1.99147e-21)
(1.16811 -0.0295794 8.12315e-22)
(1.17254 -0.0291204 -6.34285e-22)
(1.17694 -0.0286809 -6.82356e-23)
(1.18129 -0.0282607 -5.20332e-23)
(1.1233 -0.0356634 1.48141e-20)
(1.12774 -0.0350446 -6.16294e-21)
(1.13221 -0.0344328 8.22728e-21)
(1.13671 -0.0338303 -5.63894e-21)
(1.14122 -0.0332393 -1.48943e-21)
(1.14574 -0.0326617 3.04239e-21)
(1.15026 -0.0320993 -5.9162e-21)
(1.15478 -0.0315535 -2.16861e-21)
(1.15929 -0.0310255 -2.71019e-21)
(1.16378 -0.0305164 9.22316e-22)
(1.16825 -0.0300269 -6.22948e-22)
(1.17268 -0.0295574 -1.28203e-22)
(1.17708 -0.0291081 2.77956e-23)
(1.18143 -0.0286788 -5.96304e-23)
(1.12341 -0.0362418 -9.12505e-21)
(1.12786 -0.0356077 5.34523e-21)
(1.13234 -0.0349808 -9.35961e-21)
(1.13684 -0.0343634 1.65693e-21)
(1.14135 -0.0337578 1.51653e-21)
(1.14587 -0.033166 -3.00937e-21)
(1.1504 -0.0325899 9.53969e-22)
(1.15492 -0.0320309 6.89296e-22)
(1.15943 -0.0314904 1.01914e-21)
(1.16392 -0.0309695 -1.73074e-21)
(1.16839 -0.0304689 3.88951e-23)
(1.17283 -0.029989 3.47362e-22)
(1.17722 -0.0295299 2.14741e-22)
(1.18157 -0.0290915 4.80272e-23)
(1.12353 -0.0368155 -2.78449e-22)
(1.12798 -0.036166 -1.81478e-20)
(1.13246 -0.0355237 8.0153e-21)
(1.13697 -0.0348912 -2.76018e-22)
(1.14148 -0.0342709 -4.89804e-21)
(1.14601 -0.0336648 5.13238e-21)
(1.15054 -0.0330749 -1.29168e-23)
(1.15506 -0.0325028 -3.21009e-21)
(1.15957 -0.0319499 4.45514e-22)
(1.16406 -0.0314171 2.93936e-21)
(1.16853 -0.0309054 -4.85054e-23)
(1.17296 -0.0304151 -6.12544e-22)
(1.17736 -0.0299464 -1.45773e-22)
(1.18171 -0.029499 3.3866e-23)
(1.12365 -0.0373845 -7.72329e-21)
(1.12811 -0.0367193 1.7332e-20)
(1.13259 -0.0360615 -9.90032e-21)
(1.1371 -0.0354138 6.88418e-22)
(1.14162 -0.0347787 2.78494e-21)
(1.14614 -0.0341583 -3.42663e-21)
(1.15067 -0.0335546 -4.05352e-21)
(1.1552 -0.0329693 6.16348e-21)
(1.15971 -0.0324039 -2.03037e-21)
(1.1642 -0.0318593 -2.39327e-21)
(1.16867 -0.0313365 -7.23612e-22)
(1.1731 -0.0308358 2.62016e-22)
(1.1775 -0.0303575 3.05395e-23)
(1.18185 -0.0299012 -6.35246e-23)
(1.12378 -0.0379488 2.37763e-21)
(1.12824 -0.0372677 -1.12313e-20)
(1.13273 -0.0365942 4.69696e-21)
(1.13723 -0.0359312 -5.58616e-21)
(1.14175 -0.0352811 1.72292e-21)
(1.14628 -0.0346463 3.26842e-22)
(1.15081 -0.0340288 6.71702e-21)
(1.15534 -0.0334304 -3.17219e-21)
(1.15985 -0.0328524 1.32316e-21)
(1.16434 -0.0322961 2.005e-23)
(1.16881 -0.0317622 1.18098e-21)
(1.17324 -0.0312512 5.94975e-22)
(1.17764 -0.0307633 -3.0117e-22)
(1.18198 -0.0302981 6.79876e-23)
(1.12391 -0.0385084 1.35809e-20)
(1.12837 -0.0378112 3.03649e-21)
(1.13286 -0.0371219 6.26849e-21)
(1.13737 -0.0364434 7.58966e-22)
(1.14189 -0.0357783 1.46531e-21)
(1.14642 -0.0351291 2.43588e-21)
(1.15095 -0.0344977 -2.46107e-21)
(1.15547 -0.033886 3.033e-21)
(1.15998 -0.0332956 9.27571e-23)
(1.16448 -0.0327275 -4.70297e-22)
(1.16894 -0.0321826 -1.67937e-22)
(1.17338 -0.0316614 -8.45326e-22)
(1.17777 -0.031164 1.7165e-22)
(1.18212 -0.03069 -6.59528e-23)
(1.12404 -0.0390633 -3.05402e-22)
(1.1285 -0.0383499 1.66218e-20)
(1.133 -0.0376446 -1.08302e-20)
(1.13751 -0.0369505 9.09849e-22)
(1.14203 -0.0362703 -5.1104e-21)
(1.14656 -0.0356065 -6.28545e-21)
(1.15109 -0.0349612 3.03797e-21)
(1.15561 -0.0343364 -2.19424e-21)
(1.16012 -0.0337334 -6.51962e-23)
(1.16461 -0.0331536 1.84983e-21)
(1.16908 -0.0325977 -1.68244e-22)
(1.17351 -0.0320663 6.31359e-22)
(1.17791 -0.0315594 3.67329e-22)
(1.18225 -0.0310768 4.68629e-23)
(1.12417 -0.0396136 -3.60496e-21)
(1.12864 -0.0388836 -1.75358e-20)
(1.13313 -0.0381622 1.16922e-20)
(1.13765 -0.0374524 2.4961e-22)
(1.14217 -0.0367571 5.8118e-21)
(1.1467 -0.0360786 1.21855e-21)
(1.15123 -0.0354194 7.13216e-22)
(1.15575 -0.0347813 1.58186e-21)
(1.16026 -0.0341659 1.39687e-21)
(1.16475 -0.0335744 8.06287e-22)
(1.16921 -0.0330076 1.22818e-21)
(1.17365 -0.0324661 -7.49921e-22)
(1.17804 -0.0319499 -1.51463e-22)
(1.18238 -0.0314585 -7.91512e-23)
(1.12431 -0.0401583 1.49878e-20)
(1.12878 -0.0394118 1.76828e-21)
(1.13328 -0.0386742 -9.11131e-21)
(1.13779 -0.0379486 6.64383e-21)
(1.14231 -0.0372381 -4.20741e-21)
(1.14684 -0.0365451 -8.65348e-22)
(1.15137 -0.035872 -3.42315e-21)
(1.15589 -0.0352208 -2.04598e-21)
(1.1604 -0.034593 2.36397e-22)
(1.16488 -0.0339898 -2.26148e-21)
(1.16935 -0.0334123 -2.7836e-22)
(1.17378 -0.0328607 6.54881e-22)
(1.17817 -0.0323352 -5.24944e-22)
(1.18251 -0.0318353 -6.52386e-24)
(1.12445 -0.0406974 -7.98748e-21)
(1.12892 -0.0399341 -8.8251e-21)
(1.13342 -0.0391802 2.41298e-22)
(1.13793 -0.0384389 -3.35884e-21)
(1.14245 -0.0377131 4.92623e-22)
(1.14698 -0.0370055 1.44454e-21)
(1.1515 -0.0363186 6.62883e-22)
(1.15602 -0.0356542 -8.9017e-22)
(1.16053 -0.0350141 -2.56251e-21)
(1.16502 -0.0343995 5.49438e-22)
(1.16948 -0.0338113 -1.47515e-21)
(1.17391 -0.0332499 -6.11777e-22)
(1.1783 -0.0327153 4.61071e-22)
(1.18264 -0.0322071 9.54679e-23)
(1.1246 -0.0412375 -2.38876e-20)
(1.12907 -0.0404566 6.30339e-21)
(1.13356 -0.0396855 1.58524e-20)
(1.13807 -0.0389275 5.00001e-21)