/*--------------------------------*- C++ -*----------------------------------*\
  =========                 |
  \\      /  F ield         | OpenFOAM: The Open Source CFD Toolbox
   \\    /   O peration     | Website:  https://openfoam.org
    \\  /    A nd           | Version:  7
     \\/     M anipulation  |
\*---------------------------------------------------------------------------*/
FoamFile
{
    version     2.0;
    format      ascii;
    class       volScalarField;
    location    "20";
    object      p;
}
// * * * * * * * * * * * * * * * * * * * * * * * * * * * * * * * * * * * * * //

dimensions      [0 2 -2 0 0 0 0];

internalField   nonuniform List<scalar> 
24200
(
-0.312134
-0.312287
-0.31237
-0.31238
-0.312315
-0.312175
-0.311956
-0.311659
-0.31128
-0.310817
-0.310267
-0.309628
-0.308896
-0.308065
-0.307132
-0.306089
-0.304932
-0.303653
-0.302248
-0.300712
-0.299046
-0.297255
-0.295355
-0.293366
-0.291311
-0.289302
-0.312173
-0.312327
-0.312409
-0.31242
-0.312355
-0.312215
-0.311997
-0.3117
-0.311322
-0.310861
-0.310313
-0.309676
-0.308945
-0.308117
-0.307186
-0.306146
-0.304992
-0.303716
-0.302313
-0.300778
-0.29911
-0.297313
-0.295402
-0.293399
-0.291315
-0.289271
-0.312251
-0.312404
-0.312487
-0.312498
-0.312434
-0.312295
-0.312078
-0.311783
-0.311406
-0.310947
-0.310402
-0.309768
-0.309041
-0.308218
-0.307292
-0.306257
-0.305108
-0.303838
-0.302438
-0.300905
-0.299234
-0.297426
-0.295496
-0.293466
-0.291327
-0.289206
-0.312366
-0.312519
-0.312602
-0.312612
-0.312549
-0.312411
-0.312196
-0.311903
-0.311529
-0.311073
-0.310532
-0.309902
-0.309181
-0.308363
-0.307444
-0.306417
-0.305276
-0.304013
-0.302619
-0.301088
-0.299413
-0.297592
-0.295634
-0.293566
-0.291357
-0.289096
-0.312515
-0.312667
-0.31275
-0.312761
-0.312699
-0.312562
-0.312348
-0.312057
-0.311686
-0.311234
-0.310697
-0.310073
-0.309358
-0.308548
-0.307636
-0.306619
-0.305486
-0.304232
-0.302845
-0.301318
-0.299639
-0.297803
-0.295812
-0.293697
-0.291421
-0.288932
-0.312847
-0.312929
-0.312939
-0.312877
-0.312741
-0.31253
-0.312241
-0.311873
-0.311424
-0.310892
-0.310274
-0.309565
-0.308763
-0.30786
-0.306851
-0.305729
-0.304484
-0.303105
-0.301581
-0.2999
-0.29805
-0.296023
-0.293854
-0.291543
-0.288709
-0.313053
-0.313133
-0.313143
-0.313081
-0.312946
-0.312735
-0.312448
-0.312083
-0.311638
-0.31111
-0.310497
-0.309795
-0.308999
-0.308105
-0.307105
-0.305992
-0.304755
-0.303384
-0.301864
-0.300181
-0.298319
-0.296258
-0.294022
-0.291759
-0.288406
-0.313282
-0.31336
-0.313368
-0.313305
-0.313169
-0.312959
-0.312673
-0.312309
-0.311867
-0.311343
-0.310734
-0.310037
-0.309247
-0.30836
-0.307368
-0.306262
-0.305033
-0.303667
-0.30215
-0.300465
-0.298592
-0.296505
-0.294181
-0.292089
-0.28761
-0.313528
-0.313602
-0.313607
-0.313542
-0.313405
-0.313194
-0.312908
-0.312545
-0.312104
-0.311581
-0.310975
-0.310282
-0.309497
-0.308614
-0.307627
-0.306526
-0.305301
-0.303939
-0.302422
-0.300734
-0.29885
-0.296756
-0.294339
-0.29225
-0.287711
-0.313786
-0.313855
-0.313856
-0.313787
-0.313646
-0.313433
-0.313145
-0.312782
-0.31234
-0.311818
-0.311213
-0.31052
-0.309737
-0.308856
-0.30787
-0.306771
-0.305546
-0.304183
-0.302663
-0.300969
-0.29907
-0.296967
-0.2945
-0.292364
-0.287624
-0.314049
-0.314112
-0.314106
-0.314032
-0.313887
-0.313669
-0.313378
-0.313012
-0.312567
-0.312043
-0.311436
-0.310742
-0.309957
-0.309074
-0.308086
-0.306983
-0.305754
-0.304385
-0.302855
-0.301152
-0.299229
-0.297128
-0.294578
-0.2925
-0.287424
-0.314313
-0.314367
-0.314353
-0.314272
-0.31412
-0.313896
-0.313599
-0.313227
-0.312778
-0.312249
-0.311637
-0.310938
-0.310147
-0.309258
-0.308263
-0.307151
-0.305911
-0.30453
-0.302982
-0.301266
-0.299306
-0.297218
-0.294546
-0.29261
-0.287137
-0.314571
-0.314614
-0.31459
-0.314499
-0.314338
-0.314106
-0.313801
-0.313421
-0.312963
-0.312426
-0.311806
-0.311098
-0.310297
-0.309397
-0.308389
-0.307263
-0.306005
-0.304604
-0.303029
-0.301295
-0.299282
-0.297216
-0.294381
-0.29264
-0.286752
-0.314818
-0.314847
-0.31481
-0.314707
-0.314535
-0.314291
-0.313975
-0.313584
-0.313116
-0.312567
-0.311934
-0.311213
-0.310397
-0.30948
-0.308453
-0.307305
-0.306021
-0.304593
-0.302981
-0.301223
-0.299136
-0.2971
-0.294068
-0.292542
-0.286259
-0.315047
-0.315059
-0.315008
-0.31489
-0.314704
-0.314446
-0.314116
-0.313711
-0.313228
-0.312664
-0.312015
-0.311275
-0.310438
-0.309498
-0.308444
-0.307267
-0.305947
-0.304484
-0.30282
-0.301032
-0.298852
-0.296846
-0.293594
-0.292269
-0.285656
-0.315247
-0.315178
-0.315042
-0.314839
-0.314565
-0.314218
-0.313795
-0.313293
-0.312709
-0.312038
-0.311274
-0.31041
-0.309439
-0.308351
-0.307134
-0.305768
-0.304258
-0.302529
-0.300701
-0.29841
-0.296424
-0.292952
-0.291776
-0.284938
-0.315404
-0.315314
-0.315159
-0.314935
-0.314641
-0.314273
-0.313829
-0.313304
-0.312695
-0.311996
-0.311201
-0.310303
-0.309293
-0.308159
-0.306892
-0.305468
-0.303898
-0.302089
-0.300208
-0.297794
-0.295802
-0.292133
-0.291021
-0.284099
-0.315525
-0.315412
-0.315234
-0.314987
-0.314669
-0.314277
-0.313807
-0.313254
-0.312614
-0.31188
-0.311047
-0.310105
-0.309045
-0.307854
-0.306524
-0.305027
-0.303383
-0.301479
-0.299525
-0.296984
-0.294946
-0.291126
-0.28997
-0.283118
-0.315608
-0.315468
-0.315263
-0.31499
-0.314645
-0.314224
-0.313723
-0.313136
-0.312458
-0.311682
-0.3108
-0.309803
-0.308681
-0.30742
-0.306011
-0.304426
-0.302689
-0.300677
-0.298625
-0.29596
-0.293828
-0.289914
-0.288602
-0.281963
-0.315648
-0.315478
-0.315244
-0.314941
-0.314564
-0.314109
-0.31357
-0.312942
-0.312218
-0.31139
-0.310448
-0.309384
-0.308185
-0.306837
-0.305333
-0.303641
-0.301792
-0.299658
-0.297482
-0.294701
-0.292426
-0.288479
-0.286915
-0.280592
-0.315642
-0.31544
-0.315172
-0.314835
-0.314421
-0.313926
-0.313344
-0.312666
-0.311886
-0.310993
-0.309979
-0.308831
-0.307538
-0.306086
-0.304467
-0.302651
-0.300668
-0.298402
-0.296078
-0.293189
-0.290733
-0.286801
-0.284925
-0.278979
-0.31535
-0.315046
-0.314668
-0.314213
-0.313671
-0.313035
-0.312298
-0.311449
-0.310478
-0.309375
-0.308127
-0.306722
-0.305145
-0.303392
-0.301433
-0.299299
-0.296888
-0.294401
-0.29141
-0.288756
-0.28487
-0.282663
-0.277133
-0.315207
-0.314861
-0.314439
-0.313933
-0.313336
-0.312637
-0.311828
-0.310896
-0.309831
-0.30862
-0.307252
-0.305714
-0.303994
-0.302086
-0.299969
-0.297669
-0.295107
-0.292448
-0.289361
-0.286511
-0.282686
-0.280167
-0.275039
-0.31501
-0.314615
-0.314141
-0.313578
-0.312914
-0.31214
-0.311243
-0.310212
-0.309034
-0.307696
-0.306187
-0.304496
-0.302613
-0.300535
-0.298246
-0.295771
-0.293055
-0.290228
-0.287051
-0.284025
-0.280263
-0.277475
-0.272712
-0.314755
-0.314307
-0.313772
-0.31314
-0.312398
-0.311533
-0.310532
-0.309382
-0.30807
-0.306584
-0.304914
-0.303051
-0.300989
-0.298728
-0.29626
-0.293611
-0.290743
-0.287761
-0.284502
-0.281331
-0.277628
-0.274625
-0.270173
-0.313931
-0.313326
-0.312612
-0.311776
-0.310803
-0.309679
-0.308389
-0.306923
-0.305268
-0.303418
-0.301368
-0.299115
-0.296666
-0.294019
-0.2912
-0.288191
-0.285075
-0.281745
-0.278465
-0.274816
-0.271657
-0.267455
-0.313485
-0.312796
-0.311986
-0.311039
-0.309938
-0.308669
-0.307219
-0.305577
-0.303735
-0.30169
-0.299442
-0.296993
-0.294357
-0.291537
-0.288564
-0.285429
-0.282203
-0.278818
-0.275466
-0.271864
-0.268604
-0.264597
-0.312963
-0.312175
-0.311251
-0.310173
-0.308923
-0.307488
-0.305856
-0.30402
-0.301976
-0.299726
-0.297275
-0.294634
-0.291819
-0.28884
-0.285732
-0.282492
-0.279183
-0.275759
-0.272367
-0.26881
-0.265494
-0.261634
-0.311455
-0.310397
-0.309166
-0.307745
-0.306123
-0.304291
-0.302246
-0.29999
-0.297531
-0.294881
-0.292055
-0.289076
-0.285959
-0.282738
-0.279416
-0.276051
-0.272605
-0.2692
-0.265684
-0.262349
-0.258599
-0.310624
-0.309411
-0.308005
-0.306392
-0.304564
-0.302516
-0.300253
-0.297782
-0.295117
-0.292278
-0.289283
-0.28616
-0.282927
-0.279618
-0.276236
-0.272837
-0.269384
-0.265987
-0.262513
-0.259187
-0.255518
-0.309673
-0.308281
-0.306679
-0.304855
-0.302805
-0.300532
-0.298047
-0.295364
-0.292504
-0.289491
-0.286348
-0.283103
-0.279777
-0.276402
-0.272982
-0.269568
-0.266122
-0.262749
-0.259315
-0.256019
-0.252414
-0.306998
-0.30518
-0.303128
-0.300846
-0.298345
-0.295641
-0.292756
-0.289717
-0.286549
-0.283279
-0.279936
-0.27654
-0.27312
-0.269679
-0.266266
-0.262836
-0.259497
-0.256104
-0.252855
-0.249302
-0.305553
-0.303501
-0.301211
-0.298693
-0.295966
-0.293053
-0.289981
-0.286781
-0.283481
-0.280107
-0.276688
-0.273241
-0.269793
-0.266346
-0.262943
-0.259538
-0.25624
-0.252888
-0.249701
-0.246195
-0.303941
-0.301643
-0.299109
-0.296357
-0.293412
-0.290304
-0.287065
-0.283725
-0.280314
-0.276859
-0.273382
-0.269902
-0.266439
-0.262996
-0.259609
-0.256236
-0.252982
-0.249673
-0.246558
-0.243096
-0.299609
-0.296831
-0.293852
-0.290704
-0.287419
-0.284032
-0.280575
-0.277074
-0.273555
-0.270037
-0.266537
-0.263068
-0.259638
-0.25627
-0.252934
-0.249723
-0.246461
-0.243429
-0.240009
-0.297408
-0.294393
-0.291199
-0.287863
-0.284422
-0.280908
-0.277353
-0.273782
-0.270215
-0.266669
-0.263158
-0.25969
-0.256276
-0.252928
-0.24963
-0.246459
-0.243253
-0.240312
-0.236937
-0.291809
-0.288417
-0.284913
-0.281335
-0.277715
-0.27408
-0.270453
-0.266851
-0.263287
-0.259771
-0.25631
-0.252912
-0.249584
-0.246323
-0.243182
-0.240044
-0.237198
-0.233885
-0.289099
-0.285526
-0.281874
-0.278179
-0.27447
-0.270772
-0.267102
-0.263474
-0.259898
-0.256383
-0.25293
-0.249549
-0.246237
-0.243009
-0.239881
-0.236811
-0.23404
-0.230849
-0.282548
-0.278766
-0.274971
-0.271189
-0.267439
-0.263736
-0.26009
-0.256508
-0.252996
-0.249552
-0.246187
-0.242891
-0.239686
-0.236556
-0.23353
-0.230737
-0.227753
-0.279499
-0.275605
-0.271726
-0.267882
-0.264091
-0.260362
-0.256704
-0.253118
-0.249611
-0.246178
-0.242827
-0.239546
-0.236358
-0.233224
-0.230209
-0.22725
-0.224385
-0.272404
-0.268453
-0.264559
-0.260734
-0.256985
-0.253317
-0.249731
-0.246228
-0.242806
-0.239469
-0.236203
-0.233029
-0.229899
-0.226887
-0.223798
-0.220723
-0.269175
-0.265162
-0.261225
-0.257371
-0.253606
-0.24993
-0.246345
-0.242849
-0.239438
-0.236114
-0.232864
-0.229702
-0.226583
-0.223561
-0.22046
-0.217465
-0.261856
-0.257882
-0.254004
-0.250225
-0.246544
-0.24296
-0.239471
-0.236071
-0.232761
-0.229527
-0.226382
-0.223278
-0.220267
-0.217194
-0.214263
-0.254533
-0.250634
-0.246843
-0.243158
-0.239575
-0.236093
-0.232705
-0.22941
-0.226194
-0.223067
-0.219985
-0.216999
-0.213969
-0.211122
-0.251178
-0.24726
-0.243458
-0.239769
-0.236189
-0.232715
-0.229338
-0.226059
-0.222863
-0.219758
-0.216704
-0.213751
-0.210772
-0.207998
-0.243881
-0.240069
-0.236378
-0.232801
-0.229334
-0.22597
-0.222708
-0.219533
-0.216452
-0.21343
-0.210514
-0.207588
-0.20488
-0.236676
-0.232981
-0.229407
-0.225949
-0.222599
-0.219353
-0.216201
-0.213147
-0.210158
-0.207283
-0.204409
-0.201762
-0.229578
-0.226007
-0.222558
-0.219221
-0.215994
-0.212865
-0.20984
-0.206886
-0.204051
-0.201229
-0.198638
-0.222599
-0.219159
-0.215837
-0.212629
-0.209524
-0.206527
-0.203609
-0.200815
-0.198042
-0.195505
-0.219181
-0.21575
-0.212442
-0.209254
-0.206174
-0.203206
-0.200324
-0.197571
-0.194846
-0.192359
-0.212329
-0.209037
-0.205868
-0.202813
-0.199874
-0.197028
-0.194314
-0.191637
-0.189198
-0.205617
-0.202468
-0.199439
-0.19653
-0.193719
-0.191044
-0.188411
-0.18602
-0.199054
-0.196049
-0.193169
-0.190394
-0.187756
-0.185168
-0.182821
-0.189791
-0.18705
-0.184449
-0.181904
-0.1796
-0.183686
-0.181121
-0.178618
-0.176356
-0.17777
-0.175308
-0.173085
-0.171972
-0.169788
-0.171972
-0.169788
-0.177769
-0.175307
-0.173085
-0.183686
-0.181121
-0.178618
-0.176355
-0.189791
-0.18705
-0.184449
-0.181904
-0.1796
-0.199054
-0.196049
-0.193169
-0.190393
-0.187755
-0.185168
-0.18282
-0.205617
-0.202468
-0.199439
-0.196529
-0.193719
-0.191043
-0.188411
-0.186019
-0.212329
-0.209037
-0.205868
-0.202813
-0.199874
-0.197028
-0.194314
-0.191636
-0.189198
-0.219181
-0.21575
-0.212442
-0.209254
-0.206174
-0.203206
-0.200324
-0.19757
-0.194846
-0.192359
-0.226166
-0.222599
-0.219159
-0.215837
-0.212628
-0.209524
-0.206527
-0.203609
-0.200815
-0.198042
-0.195504
-0.229578
-0.226008
-0.222558
-0.219221
-0.215994
-0.212865
-0.209839
-0.206886
-0.204051
-0.201228
-0.198638
-0.236676
-0.232981
-0.229407
-0.225949
-0.222598
-0.219353
-0.216201
-0.213147
-0.210158
-0.207282
-0.204408
-0.201761
-0.243882
-0.24007
-0.236378
-0.232801
-0.229334
-0.22597
-0.222707
-0.219532
-0.216452
-0.213429
-0.210514
-0.207587
-0.20488
-0.251179
-0.24726
-0.243458
-0.239769
-0.236189
-0.232715
-0.229338
-0.226059
-0.222863
-0.219758
-0.216703
-0.21375
-0.210771
-0.207997
-0.254533
-0.250634
-0.246843
-0.243158
-0.239575
-0.236093
-0.232705
-0.229409
-0.226194
-0.223067
-0.219985
-0.216998
-0.213968
-0.211122
-0.261857
-0.257882
-0.254005
-0.250225
-0.246544
-0.24296
-0.239471
-0.236071
-0.232761
-0.229527
-0.226381
-0.223277
-0.220266
-0.217194
-0.214262
-0.269175
-0.265162
-0.261225
-0.257371
-0.253606
-0.249931
-0.246345
-0.242849
-0.239437
-0.236113
-0.232863
-0.229702
-0.226583
-0.22356
-0.220459
-0.217464
-0.272405
-0.268454
-0.26456
-0.260734
-0.256985
-0.253317
-0.249731
-0.246228
-0.242806
-0.239469
-0.236203
-0.233028
-0.229899
-0.226886
-0.223797
-0.220722
-0.2795
-0.275606
-0.271726
-0.267883
-0.264091
-0.260363
-0.256704
-0.253119
-0.24961
-0.246177
-0.242826
-0.239545
-0.236357
-0.233223
-0.230208
-0.22725
-0.224384
-0.282549
-0.278767
-0.274972
-0.271189
-0.267439
-0.263736
-0.26009
-0.256508
-0.252995
-0.249552
-0.246186
-0.24289
-0.239685
-0.236556
-0.233529
-0.230736
-0.227752
-0.289101
-0.285527
-0.281875
-0.27818
-0.274471
-0.270772
-0.267102
-0.263474
-0.259899
-0.256383
-0.25293
-0.249549
-0.246237
-0.243008
-0.23988
-0.23681
-0.234039
-0.230848
-0.29181
-0.288418
-0.284914
-0.281336
-0.277716
-0.274081
-0.270454
-0.266852
-0.263287
-0.259771
-0.25631
-0.252912
-0.249583
-0.246322
-0.243181
-0.240042
-0.237197
-0.233884
-0.297409
-0.294394
-0.2912
-0.287864
-0.284423
-0.280909
-0.277354
-0.273782
-0.270215
-0.266669
-0.263157
-0.25969
-0.256275
-0.252928
-0.249629
-0.246458
-0.243252
-0.240311
-0.236935
-0.299611
-0.296833
-0.293854
-0.290705
-0.28742
-0.284033
-0.280575
-0.277075
-0.273556
-0.270037
-0.266537
-0.263068
-0.259637
-0.25627
-0.252933
-0.249722
-0.246459
-0.243427
-0.240008
-0.303942
-0.301645
-0.29911
-0.296358
-0.293413
-0.290305
-0.287066
-0.283726
-0.280315
-0.276859
-0.273382
-0.269902
-0.266438
-0.262996
-0.259608
-0.256235
-0.252981
-0.249671
-0.246557
-0.243094
-0.305555
-0.303503
-0.301212
-0.298695
-0.295967
-0.293054
-0.289982
-0.286782
-0.283481
-0.280108
-0.276688
-0.273241
-0.269793
-0.266346
-0.262942
-0.259537
-0.256239
-0.252887
-0.249699
-0.246193
-0.307
-0.305181
-0.303129
-0.300848
-0.298346
-0.295642
-0.292757
-0.289717
-0.286549
-0.28328
-0.279937
-0.27654
-0.27312
-0.269679
-0.266265
-0.262835
-0.259496
-0.256102
-0.252853
-0.249301
-0.309674
-0.308283
-0.306681
-0.304856
-0.302806
-0.300534
-0.298048
-0.295365
-0.292505
-0.289492
-0.286348
-0.283104
-0.279777
-0.276402
-0.272981
-0.269568
-0.266121
-0.262747
-0.259313
-0.256017
-0.252412
-0.310626
-0.309412
-0.308007
-0.306394
-0.304565
-0.302518
-0.300254
-0.297783
-0.295118
-0.292279
-0.289284
-0.286161
-0.282927
-0.279617
-0.276235
-0.272836
-0.269383
-0.265986
-0.262511
-0.259185
-0.255516
-0.311456
-0.310399
-0.309168
-0.307747
-0.306125
-0.304292
-0.302247
-0.299991
-0.297532
-0.294882
-0.292056
-0.289077
-0.285959
-0.282738
-0.279415
-0.27605
-0.272603
-0.269198
-0.265682
-0.262347
-0.258597
-0.312964
-0.312177
-0.311253
-0.310175
-0.308925
-0.30749
-0.305858
-0.304022
-0.301978
-0.299727
-0.297276
-0.294634
-0.291819
-0.28884
-0.285731
-0.282491
-0.279182
-0.275758
-0.272366
-0.268808
-0.265492
-0.261632
-0.313487
-0.312798
-0.311988
-0.311041
-0.30994
-0.308671
-0.307221
-0.305578
-0.303737
-0.301691
-0.299443
-0.296994
-0.294357
-0.291537
-0.288564
-0.285428
-0.282202
-0.278817
-0.275464
-0.271862
-0.268602
-0.264594
-0.313933
-0.313328
-0.312614
-0.311778
-0.310805
-0.309681
-0.308391
-0.306924
-0.30527
-0.303419
-0.301369
-0.299116
-0.296667
-0.294019
-0.2912
-0.28819
-0.285073
-0.281743
-0.278463
-0.274813
-0.271655
-0.267452
-0.314757
-0.314308
-0.313774
-0.313142
-0.3124
-0.311535
-0.310534
-0.309384
-0.308072
-0.306586
-0.304915
-0.303053
-0.30099
-0.298729
-0.29626
-0.29361
-0.290742
-0.28776
-0.2845
-0.281328
-0.277625
-0.274622
-0.270169
-0.315011
-0.314617
-0.314143
-0.31358
-0.312916
-0.312142
-0.311245
-0.310214
-0.309035
-0.307697
-0.306188
-0.304497
-0.302614
-0.300535
-0.298246
-0.295771
-0.293054
-0.290227
-0.287049
-0.284022
-0.28026
-0.277471
-0.272708
-0.315209
-0.314862
-0.31444
-0.313935
-0.313338
-0.312639
-0.31183
-0.310898
-0.309833
-0.308622
-0.307253
-0.305715
-0.303995
-0.302087
-0.299969
-0.297668
-0.295106
-0.292446
-0.289359
-0.286508
-0.282683
-0.280164
-0.275036
-0.315352
-0.315047
-0.31467
-0.314214
-0.313673
-0.313037
-0.3123
-0.311451
-0.31048
-0.309377
-0.308128
-0.306723
-0.305146
-0.303392
-0.301433
-0.299299
-0.296888
-0.2944
-0.291408
-0.288753
-0.284867
-0.28266
-0.27713
-0.315643
-0.315441
-0.315174
-0.314836
-0.314423
-0.313928
-0.313346
-0.312668
-0.311888
-0.310995
-0.309981
-0.308833
-0.30754
-0.306087
-0.304468
-0.302651
-0.300668
-0.298401
-0.296077
-0.293187
-0.290731
-0.286798
-0.284921
-0.278975
-0.315649
-0.31548
-0.315246
-0.314943
-0.314566
-0.314111
-0.313572
-0.312944
-0.31222
-0.311392
-0.31045
-0.309385
-0.308186
-0.306838
-0.305334
-0.303642
-0.301791
-0.299658
-0.297481
-0.2947
-0.292423
-0.288476
-0.286911
-0.280588
-0.315609
-0.315469
-0.315265
-0.314992
-0.314647
-0.314226
-0.313724
-0.313138
-0.31246
-0.311684
-0.310802
-0.309805
-0.308682
-0.307421
-0.306012
-0.304426
-0.302688
-0.300676
-0.298623
-0.295958
-0.293825
-0.289911
-0.288599
-0.281959
-0.315527
-0.315413
-0.315235
-0.314989
-0.314671
-0.314279
-0.313808
-0.313256
-0.312615
-0.311882
-0.311048
-0.310106
-0.309046
-0.307855
-0.306525
-0.305028
-0.303383
-0.301479
-0.299523
-0.296982
-0.294944
-0.291122
-0.289966
-0.283114
-0.315405
-0.315315
-0.31516
-0.314937
-0.314643
-0.314275
-0.313831
-0.313306
-0.312697
-0.311998
-0.311203
-0.310304
-0.309294
-0.30816
-0.306893
-0.305468
-0.303898
-0.302089
-0.300207
-0.297792
-0.2958
-0.292129
-0.291017
-0.284094
-0.315248
-0.315179
-0.315044
-0.314841
-0.314567
-0.314219
-0.313797
-0.313295
-0.312711
-0.312039
-0.311275
-0.310412
-0.309441
-0.308352
-0.307135
-0.305769
-0.304258
-0.302528
-0.3007
-0.298409
-0.296421
-0.292949
-0.291772
-0.284933
-0.315048
-0.315061
-0.315009
-0.314892
-0.314705
-0.314448
-0.314118
-0.313713
-0.31323
-0.312666
-0.312016
-0.311276
-0.31044
-0.3095
-0.308445
-0.307267
-0.305948
-0.304484
-0.302819
-0.301031
-0.29885
-0.296843
-0.293591
-0.292265
-0.285651
-0.314819
-0.314848
-0.314812
-0.314708
-0.314536
-0.314293
-0.313977
-0.313586
-0.313118
-0.312569
-0.311936
-0.311215
-0.310399
-0.309482
-0.308454
-0.307306
-0.306022
-0.304593
-0.30298
-0.301222
-0.299134
-0.297098
-0.294065
-0.292538
-0.286255
-0.314572
-0.314615
-0.314591
-0.3145
-0.314339
-0.314107
-0.313802
-0.313422
-0.312965
-0.312428
-0.311807
-0.311099
-0.310298
-0.309398
-0.30839
-0.307263
-0.306005
-0.304604
-0.303029
-0.301294
-0.29928
-0.297214
-0.294378
-0.292636
-0.286747
-0.314314
-0.314368
-0.314354
-0.314273
-0.314121
-0.313897
-0.313601
-0.313229
-0.312779
-0.31225
-0.311638
-0.310939
-0.310148
-0.309259
-0.308264
-0.307152
-0.305912
-0.30453
-0.302982
-0.301265
-0.299304
-0.297216
-0.294543
-0.292607
-0.287132
-0.31405
-0.314113
-0.314107
-0.314033
-0.313888
-0.313671
-0.31338
-0.313013
-0.312569
-0.312045
-0.311437
-0.310744
-0.309958
-0.309075
-0.308087
-0.306984
-0.305755
-0.304385
-0.302854
-0.301151
-0.299227
-0.297126
-0.294575
-0.292497
-0.287419
-0.313786
-0.313856
-0.313857
-0.313788
-0.313647
-0.313434
-0.313146
-0.312783
-0.312341
-0.311819
-0.311214
-0.310522
-0.309738
-0.308857
-0.307871
-0.306772
-0.305547
-0.304183
-0.302662
-0.300968
-0.299068
-0.296965
-0.294497
-0.292361
-0.28762
-0.313529
-0.313603
-0.313608
-0.313543
-0.313406
-0.313195
-0.312909
-0.312546
-0.312105
-0.311583
-0.310976
-0.310283
-0.309498
-0.308615
-0.307628
-0.306527
-0.305302
-0.303939
-0.302422
-0.300733
-0.298848
-0.296754
-0.294336
-0.292247
-0.287706
-0.313283
-0.31336
-0.313369
-0.313306
-0.31317
-0.31296
-0.312674
-0.31231
-0.311868
-0.311344
-0.310735
-0.310038
-0.309248
-0.308361
-0.307368
-0.306263
-0.305033
-0.303667
-0.30215
-0.300465
-0.298591
-0.296503
-0.294179
-0.292086
-0.287605
-0.313054
-0.313134
-0.313144
-0.313082
-0.312946
-0.312736
-0.312449
-0.312084
-0.311639
-0.311111
-0.310498
-0.309796
-0.309
-0.308106
-0.307106
-0.305992
-0.304756
-0.303384
-0.301864
-0.300181
-0.298318
-0.296257
-0.29402
-0.291756
-0.288404
-0.312847
-0.312929
-0.31294
-0.312878
-0.312742
-0.31253
-0.312242
-0.311874
-0.311425
-0.310893
-0.310275
-0.309566
-0.308763
-0.307861
-0.306852
-0.305729
-0.304484
-0.303105
-0.301581
-0.2999
-0.298049
-0.296022
-0.293852
-0.29154
-0.288706
-0.312516
-0.312668
-0.31275
-0.312761
-0.312699
-0.312562
-0.312349
-0.312058
-0.311687
-0.311235
-0.310698
-0.310074
-0.309359
-0.308548
-0.307637
-0.306619
-0.305487
-0.304232
-0.302845
-0.301317
-0.299639
-0.297802
-0.295811
-0.293696
-0.291419
-0.28893
-0.312366
-0.312519
-0.312602
-0.312613
-0.31255
-0.312412
-0.312197
-0.311903
-0.31153
-0.311073
-0.310532
-0.309903
-0.309181
-0.308364
-0.307444
-0.306418
-0.305276
-0.304013
-0.302619
-0.301088
-0.299413
-0.297591
-0.295633
-0.293564
-0.291355
-0.289094
-0.312251
-0.312405
-0.312487
-0.312498
-0.312434
-0.312295
-0.312078
-0.311783
-0.311407
-0.310947
-0.310402
-0.309768
-0.309042
-0.308218
-0.307292
-0.306258
-0.305108
-0.303838
-0.302438
-0.300905
-0.299234
-0.297426
-0.295496
-0.293465
-0.291325
-0.289204
-0.312173
-0.312327
-0.31241
-0.31242
-0.312355
-0.312215
-0.311998
-0.311701
-0.311323
-0.310861
-0.310313
-0.309676
-0.308945
-0.308117
-0.307186
-0.306146
-0.304992
-0.303716
-0.302313
-0.300778
-0.29911
-0.297312
-0.295402
-0.293399
-0.291314
-0.28927
-0.312134
-0.312287
-0.31237
-0.31238
-0.312315
-0.312175
-0.311957
-0.311659
-0.31128
-0.310817
-0.310267
-0.309628
-0.308896
-0.308065
-0.307132
-0.306089
-0.304932
-0.303653
-0.302248
-0.300712
-0.299046
-0.297255
-0.295355
-0.293366
-0.291311
-0.289302
-0.287322
-0.284888
-0.28245
-0.279855
-0.277142
-0.27428
-0.271261
-0.268058
-0.264649
-0.261005
-0.257096
-0.252887
-0.248344
-0.243427
-0.2381
-0.232324
-0.226067
-0.219298
-0.211995
-0.204144
-0.195745
-0.186808
-0.177362
-0.167448
-0.157127
-0.146476
-0.135579
-0.124551
-0.113495
-0.102531
-0.0917784
-0.0813494
-0.0713512
-0.0618781
-0.0530093
-0.0448066
-0.0373131
-0.0305527
-0.0245317
-0.0192393
-0.0146505
-0.0107285
-0.00742745
-0.00469519
-0.00247578
-0.000711834
0.000653582
0.00167541
0.00240546
0.00289158
0.00317719
0.00330104
0.00329722
0.00319525
0.00302036
0.00279382
0.0025333
0.00225325
0.00196532
0.00167872
0.00140053
0.00113607
0.000889143
0.000662315
0.000457105
0.000274207
0.000113653
-2.50117e-05
-0.000142616
-0.000240219
-0.000319058
-0.000380426
-0.000425701
-0.000456214
-0.000473386
-0.000478502
-0.000473029
-0.000458133
-0.000435328
-0.000405561
-0.000370539
-0.000330844
-0.000288489
-0.000243185
-0.00019766
-0.000150375
-0.000106016
-6.05706e-05
-2.19868e-05
1.94701e-05
4.92515e-05
8.73846e-05
0.000104061
0.000138942
0.000131482
0.000164281
0.000116207
0.000162773
5.23614e-05
0.00015734
-0.287402
-0.284939
-0.282509
-0.279916
-0.277206
-0.274335
-0.271335
-0.268142
-0.26474
-0.261104
-0.257204
-0.253006
-0.248473
-0.243568
-0.238253
-0.232489
-0.226244
-0.219487
-0.212195
-0.204355
-0.195964
-0.187035
-0.177596
-0.167686
-0.157368
-0.146718
-0.135821
-0.124791
-0.113731
-0.10276
-0.092001
-0.0815641
-0.0715571
-0.0620745
-0.0531958
-0.0449829
-0.0374791
-0.0307086
-0.0246775
-0.0193753
-0.014777
-0.0108458
-0.007536
-0.00479536
-0.00256799
-0.00079651
0.000575999
0.00160448
0.00234075
0.00283266
0.00312363
0.00325244
0.00325319
0.00315541
0.00298435
0.00276131
0.00250396
0.0022268
0.00194149
0.00165724
0.00138118
0.00111864
0.000873443
0.000648171
0.000444359
0.000262717
0.000103291
-3.43639e-05
-0.000151064
-0.00024786
-0.000325978
-0.000386703
-0.000431405
-0.000461405
-0.00047812
-0.000482826
-0.000476985
-0.000461759
-0.000438656
-0.000408619
-0.000373353
-0.000333438
-0.000290885
-0.000245403
-0.000199711
-0.000152272
-0.000107764
-6.21876e-05
-2.34808e-05
1.80706e-05
4.7954e-05
8.61612e-05
0.00010296
0.000137918
0.000130639
0.000163487
0.000115681
0.000162136
5.2181e-05
0.000156531
-0.287562
-0.285037
-0.282623
-0.280034
-0.277333
-0.274505
-0.271489
-0.268302
-0.264914
-0.261295
-0.257413
-0.253234
-0.248723
-0.243839
-0.238547
-0.232807
-0.226585
-0.219851
-0.212581
-0.204761
-0.196389
-0.187476
-0.178049
-0.16815
-0.157838
-0.147193
-0.136294
-0.12526
-0.114189
-0.103211
-0.0924388
-0.0819869
-0.0719633
-0.0624627
-0.0535651
-0.0453328
-0.0378093
-0.031019
-0.0249683
-0.0196469
-0.0150299
-0.0110807
-0.00775349
-0.00499621
-0.00275299
-0.000966487
0.000420203
0.00146201
0.00221075
0.00271427
0.00301603
0.00315481
0.00316475
0.00307539
0.00291204
0.00269603
0.00244508
0.00217372
0.00189366
0.00161416
0.00134239
0.00108371
0.000841993
0.000619849
0.00041885
0.000239733
8.25722e-05
-5.30528e-05
-0.000167938
-0.000263112
-0.000339784
-0.000399219
-0.000442771
-0.000471746
-0.000487544
-0.00049143
-0.000484853
-0.000468967
-0.000445269
-0.000414696
-0.000378942
-0.00033859
-0.000295642
-0.000249806
-0.000203782
-0.000156037
-0.000111233
-6.53969e-05
-2.64454e-05
1.52944e-05
4.53807e-05
8.37354e-05
0.000100776
0.000135886
0.000128966
0.000161911
0.000114635
0.000160869
5.18225e-05
0.000154922
-0.287801
-0.285173
-0.282784
-0.280197
-0.277513
-0.274683
-0.271693
-0.268527
-0.265159
-0.261563
-0.257706
-0.253555
-0.249074
-0.244222
-0.238962
-0.233256
-0.227068
-0.220367
-0.213129
-0.205338
-0.196993
-0.188104
-0.178697
-0.168814
-0.158514
-0.147879
-0.136965
-0.125934
-0.114858
-0.103866
-0.0930768
-0.0826052
-0.0725592
-0.0630342
-0.0541105
-0.0458511
-0.0382998
-0.0314815
-0.0254028
-0.0200537
-0.0154095
-0.0114338
-0.00808091
-0.00529895
-0.00303212
-0.00122314
0.000184833
0.0012467
0.00201424
0.00253532
0.00285339
0.00300727
0.00303112
0.00295454
0.00280288
0.00259753
0.00235628
0.00209372
0.00182163
0.00154932
0.00128404
0.0010312
0.000794745
0.000577331
0.00038058
0.000205277
5.15347e-05
-8.10295e-05
-0.000193178
-0.00028591
-0.000360404
-0.000417899
-0.000459723
-0.000487156
-0.000501577
-0.000504232
-0.000496553
-0.000479679
-0.000455092
-0.000423716
-0.000387236
-0.000346231
-0.000302693
-0.000256329
-0.000209813
-0.000161613
-0.00011637
-7.01496e-05
-3.08349e-05
1.11857e-05
4.15745e-05
8.01486e-05
9.75472e-05
0.00013288
0.00012649
0.000159573
0.000113085
0.000158986
5.12907e-05
0.000152535
-0.288122
-0.28533
-0.28297
-0.280408
-0.277734
-0.274918
-0.271946
-0.268801
-0.265458
-0.261889
-0.258064
-0.253947
-0.249502
-0.244689
-0.23947
-0.233806
-0.22766
-0.221
-0.213803
-0.206051
-0.197742
-0.188885
-0.179507
-0.169639
-0.159353
-0.148724
-0.13783
-0.12679
-0.115707
-0.104702
-0.0938953
-0.0834019
-0.0733305
-0.0637772
-0.0548228
-0.0465308
-0.0389456
-0.0320926
-0.0259789
-0.0205946
-0.0159157
-0.0119057
-0.00851944
-0.00570508
-0.00340705
-0.00156822
-0.000131851
0.000956869
0.00174967
0.00229437
0.00263444
0.0028087
0.00285134
0.00279203
0.00265618
0.00246524
0.0022371
0.00198643
0.0017251
0.0014625
0.00120597
0.000961021
0.000731651
0.000520603
0.000329568
0.00015939
1.02392e-05
-0.000118217
-0.000226697
-0.000316155
-0.000387734
-0.000442632
-0.000482144
-0.000507519
-0.000520103
-0.000521117
-0.00051197
-0.000493782
-0.000468013
-0.000435574
-0.000398131
-0.000356261
-0.000311945
-0.000264883
-0.000217717
-0.000168919
-0.000123101
-7.63757e-05
-3.6583e-05
5.80843e-06
3.65971e-05
7.546e-05
9.3328e-05
0.000128948
0.000123249
0.000156505
0.000111051
0.000156506
5.05921e-05
0.0001494
-0.288538
-0.285502
-0.283219
-0.280646
-0.277978
-0.275178
-0.272227
-0.269106
-0.26579
-0.262252
-0.258462
-0.254383
-0.24998
-0.245211
-0.24004
-0.234423
-0.228326
-0.221716
-0.214569
-0.206858
-0.198588
-0.189771
-0.180425
-0.170592
-0.16033
-0.149715
-0.138832
-0.127794
-0.116708
-0.105693
-0.0948713
-0.0843575
-0.0742608
-0.0646782
-0.0556911
-0.0473636
-0.0397407
-0.0328483
-0.026694
-0.0212686
-0.0165482
-0.0124971
-0.00907016
-0.00621606
-0.00387947
-0.0020035
-0.000531636
0.000590793
0.0014154
0.00198994
0.00235783
0.0025579
0.00262439
0.002587
0.0024712
0.00229857
0.00208707
0.00185148
0.00160379
0.00135351
0.00110807
0.000873089
0.000652681
0.000449678
0.000265856
0.000102142
-4.12241e-05
-0.00016451
-0.000268374
-0.000353719
-0.000421635
-0.000473276
-0.00050989
-0.000532686
-0.000542973
-0.000541938
-0.00053096
-0.000511134
-0.000483896
-0.000450134
-0.000411498
-0.000368558
-0.000323278
-0.000275352
-0.000227386
-0.000177854
-0.000131331
-8.3987e-05
-4.36067e-05
-7.57085e-07
3.05259e-05
6.9744e-05
8.81861e-05
0.00012415
0.000119292
0.000152746
0.000108558
0.000153455
4.97352e-05
0.000145557
-0.28899
-0.285681
-0.283455
-0.280885
-0.278232
-0.27545
-0.27252
-0.269423
-0.266136
-0.262631
-0.258877
-0.25484
-0.250485
-0.245752
-0.240634
-0.23507
-0.229026
-0.22247
-0.215373
-0.207719
-0.199502
-0.190729
-0.181425
-0.171628
-0.161397
-0.150806
-0.139941
-0.128914
-0.117831
-0.106813
-0.0959812
-0.0854512
-0.0753326
-0.0657228
-0.0567038
-0.0483404
-0.0406781
-0.0337436
-0.027545
-0.0220736
-0.0173063
-0.0132078
-0.00973364
-0.00683286
-0.00445061
-0.00253039
-0.00101597
0.000147038
0.00101007
0.00162074
0.00202241
0.00225388
0.00234938
0.00233868
0.00224734
0.002097
0.00190578
0.00168857
0.00145749
0.00122219
0.000990235
0.00076738
0.000557853
0.000364607
0.000189528
3.36393e-05
-0.00010273
-0.000219767
-0.000318058
-0.00039844
-0.000461942
-0.000509659
-0.000542788
-0.000562486
-0.000570015
-0.000566523
-0.000553353
-0.00053157
-0.000502578
-0.000467243
-0.000427188
-0.000382977
-0.000336554
-0.000287606
-0.000238695
-0.000188299
-0.000140951
-9.2881e-05
-5.18094e-05
-8.41759e-06
2.34508e-05
6.30872e-05
8.22004e-05
0.000118557
0.000114676
0.000148343
0.000105638
0.000149863
4.873e-05
0.000141053
-0.290019