/*--------------------------------*- C++ -*----------------------------------*\
  =========                 |
  \\      /  F ield         | OpenFOAM: The Open Source CFD Toolbox
   \\    /   O peration     | Website:  https://openfoam.org
    \\  /    A nd           | Version:  7
     \\/     M anipulation  |
\*---------------------------------------------------------------------------*/
FoamFile
{
    version     2.0;
    format      ascii;
    class       surfaceScalarField;
    location    "20";
    object      phi;
}
// * * * * * * * * * * * * * * * * * * * * * * * * * * * * * * * * * * * * * //

dimensions      [0 3 -1 0 0 0 0];

internalField   nonuniform List<scalar> 
48038
(
-0.000326283
2.86696e-05
5.29397e-10
-0.000355556
2.92725e-05
-4.00108e-11
-0.000385438
2.98827e-05
-7.03293e-10
-0.000415935
3.04992e-05
-1.46887e-09
-0.000447053
3.11198e-05
-2.34442e-09
-0.000478791
3.17414e-05
-3.33674e-09
-0.000511146
3.23597e-05
-4.45142e-09
-0.00054411
3.29691e-05
-5.69254e-09
-0.000577665
3.35625e-05
-7.06232e-09
-0.000611787
3.41309e-05
-8.56068e-09
-0.00064644
3.46631e-05
-1.01848e-08
-0.000681573
3.51451e-05
-1.19286e-08
-0.000717119
3.55598e-05
-1.3782e-08
-0.000752991
3.58872e-05
-1.57306e-08
-0.000789077
3.61041e-05
-1.77546e-08
-0.000825243
3.61853e-05
-1.98284e-08
-0.000861327
3.61058e-05
-2.19195e-08
-0.000897147
3.58446e-05
-2.39878e-08
-0.000932514
3.53926e-05
-2.59853e-08
-0.000967249
3.47633e-05
-2.78554e-08
-0.00100123
3.40089e-05
-2.95335e-08
-0.00103444
3.32415e-05
-3.09487e-08
-0.00106707
3.26621e-05
-3.20266e-08
-0.00109957
3.25357e-05
-3.26947e-08
-0.00113265
3.31083e-05
-3.28871e-08
3.5051e-05
-3.25623e-08
-0.00116767
-0.000323824
5.6985e-05
-0.000352696
5.81451e-05
-0.000382128
5.93149e-05
-0.000412121
6.04919e-05
-0.000442673
6.16713e-05
-0.000473778
6.28465e-05
-0.000505426
6.40082e-05
-0.000537602
6.51451e-05
-0.000570282
6.62424e-05
-0.000603433
6.72818e-05
-0.00063701
6.82405e-05
-0.000670956
6.90905e-05
-0.000705193
6.97978e-05
-0.000739629
7.03222e-05
-0.000774142
7.06177e-05
-0.000808591
7.06339e-05
-0.000842805
7.032e-05
-0.000876593
6.96325e-05
-0.000909749
6.85486e-05
-0.000942073
6.70873e-05
-0.000973404
6.53403e-05
-0.00100368
6.3513e-05
-0.001033
6.19885e-05
-0.00106178
6.13088e-05
-0.00109064
6.19722e-05
6.52198e-05
-0.00112081
-0.000318922
8.45934e-05
-0.000346998
8.62207e-05
-0.000375534
8.78506e-05
-0.00040452
8.94783e-05
-0.000433944
9.10956e-05
-0.000463789
9.26911e-05
-0.000494031
9.42502e-05
-0.00052464
9.57545e-05
-0.000555579
9.71809e-05
-0.000586798
9.85013e-05
-0.000618239
9.96806e-05
-0.000649825
0.000100677
-0.000681465
0.000101438
-0.000713048
0.000101906
-0.000744441
0.00010201
-0.000775483
0.000101676
-0.00080599
0.000100827
-0.00083575
9.93928e-05
-0.000864532
9.73304e-05
-0.000892095
9.46501e-05
-0.000918214
9.14598e-05
-0.000942724
8.80229e-05
-0.000965597
8.48618e-05
-0.000987097
8.28079e-05
-0.00100777
8.26454e-05
8.59007e-05
-0.00102845
-0.000311608
0.000111147
-0.000338495
0.000113107
-0.000365694
0.00011505
-0.000393181
0.000116965
-0.000420926
0.000118841
-0.000448894
0.000120659
-0.000477043
0.000122399
-0.000505322
0.000124034
-0.000533673
0.000125532
-0.000562024
0.000126852
-0.000590292
0.000127948
-0.000618379
0.000128763
-0.000646168
0.000129228
-0.000673526
0.000129263
-0.000700295
0.000128779
-0.000726295
0.000127676
-0.000751317
0.000125849
-0.000775125
0.000123201
-0.000797455
0.00011966
-0.000818017
0.000115212
-0.000836509
0.000109952
-0.000852641
0.000104155
-0.000866192
9.84125e-05
-0.000877214
9.38297e-05
-0.000886152
9.1583e-05
9.28684e-05
-0.000893119
-0.000301923
-0.000327236
0.000138421
-0.000352667
0.000140481
-0.000378172
0.000142469
-0.000403699
0.000144367
-0.00042919
0.00014615
-0.000454578
0.000147788
-0.000479788
0.000149244
-0.000504732
0.000150475
-0.000529309
0.00015143
-0.000553407
0.000152047
-0.000576897
0.000152253
-0.000599632
0.000151963
-0.000621448
0.000151079
-0.000642158
0.000149489
-0.000661553
0.00014707
-0.000679396
0.000143692
-0.000695423
0.000139228
-0.000709335
0.000133572
-0.000720794
0.000126672
-0.000729425
0.000118583
-0.000734812
0.000109542
-0.000736519
0.000100119
-0.00073429
9.16016e-05
-0.000728516
8.58085e-05
8.25199e-05
-0.000718167
-0.000313285
0.000161786
-0.000336528
0.000163724
-0.000359581
0.000165522
-0.000382367
0.000167153
-0.0004048
0.000168583
-0.000426784
0.000169772
-0.000448211
0.000170671
-0.000468961
0.000171225
-0.000488898
0.000171367
-0.000507874
0.000171023
-0.000525724
0.000170102
-0.000542263
0.000168502
-0.00055729
0.000166106
-0.000570584
0.000162783
-0.000581899
0.000158386
-0.000590968
0.000152761
-0.000597494
0.000145754
-0.000601145
0.000137224
-0.000601545
0.000127072
-0.000598258
0.000115296
-0.000590769
0.000102052
-0.000578455
8.78052e-05
-0.000560642
7.37887e-05
-0.000537757
6.29235e-05
5.21631e-05
-0.000507401
-0.000296714
0.000182839
-0.000317363
0.000184373
-0.000337511
0.00018567
-0.000357051
0.000186694
-0.000375867
0.000187399
-0.000393828
0.000187732
-0.000410789
0.000187633
-0.000426594
0.000187029
-0.000441067
0.000185841
-0.000454019
0.000183975
-0.000465242
0.000181325
-0.00047451
0.00017777
-0.000481579
0.000173175
-0.000486185
0.000167389
-0.000488043
0.000160245
-0.000486849
0.000151567
-0.000482271
0.000141175
-0.000473945
0.000128898
-0.000461464
0.000114591
-0.000444356
9.81877e-05
-0.000422044
7.97408e-05
-0.000393824
5.95855e-05
-0.000358483
3.8447e-05
-0.000316464
2.09047e-05
5.38423e-07
-0.000264839
-0.000277608
0.000201227
-0.000295268
0.000202033
-0.000312072
0.000202475
-0.000327882
0.000202503
-0.000342543
0.00020206
-0.000355888
0.000201077
-0.000367733
0.000199478
-0.000377878
0.000197174
-0.000386105
0.000194068
-0.00039218
0.000190049
-0.000395847
0.000184992
-0.000396835
0.000178758
-0.00039485
0.000171191
-0.000389584
0.000162122
-0.000380706
0.000151366
-0.000367867
0.000138728
-0.000350697
0.000124006
-0.000328801
0.000107001
-0.000301741
8.75312e-05
-0.000269032
6.54786e-05
-0.000230064
4.07729e-05
-0.000184235
1.3756e-05
-0.000130044
-1.5744e-05
-6.58148e-05
-4.33241e-05
-6.90993e-05
3.82289e-06
-0.000256053
0.000216609
-0.000270344
0.000216324
-0.000283383
0.000215514
-0.000294994
0.000214114
-0.000304984
0.00021205
-0.000313145
0.000209238
-0.00031925
0.000205583
-0.000323054
0.000200978
-0.000324292
0.000195307
-0.000322681
0.000188438
-0.000317917
0.000180227
-0.000309674
0.000170515
-0.000297611
0.000159128
-0.000281367
0.000145877
-0.00026056
0.00013056
-0.000234795
0.000112963
-0.000203656
9.28668e-05
-0.000166711
7.00563e-05
-0.000123493
4.43136e-05
-7.35157e-05
1.55011e-05
-1.61387e-05
-1.66041e-05
4.92524e-05
-5.16351e-05
0.000123757
-9.02486e-05
0.000209145
-0.000128712
-0.000167257
0.000307302
-0.000232139
0.000228654
-0.000242693
0.000226878
-0.000251557
0.000224378
-0.000258517
0.000221073
-0.000263338
0.000216871
-0.000265767
0.000211668
-0.000265533
0.000205349
-0.000262342
0.000197787
-0.00025588
0.000188845
-0.000245811
0.000178369
-0.000231779
0.000166195
-0.000213405
0.000152142
-0.000190294
0.000136016
-0.000162028
0.000117611
-0.000128174
9.67063e-05
-8.82851e-05
7.30739e-05
-4.18964e-05
4.64781e-05
1.14654e-05
1.66944e-05
7.23057e-05
-1.65267e-05
0.000141107
-5.33001e-05
0.000218543
-9.40401e-05
0.000304953
-0.000138045
0.000402147
-0.000187443
0.000509683
-0.000236248
-0.000291594
0.00063402
-0.000205953
0.00023704
-0.000212411
0.000233337
-0.000216703
0.00022867
-0.000218571
0.000222941
-0.000217737
0.000216037
-0.000213903
0.000207833
-0.000206746
0.000198192
-0.000195924
0.000186965
-0.00018107
0.000173991
-0.000161795
0.000159094
-0.000137686
0.000142086
-0.000108311
0.000122767
-7.32169e-05
0.000100922
-3.1931e-05
7.63252e-05
1.60344e-05
4.87409e-05
7.11805e-05
1.79279e-05
0.000134022
-1.63632e-05
0.000205071
-5.43551e-05
0.000284879
-9.63348e-05
0.000373917
-0.000142338
0.000472925
-0.000193048
0.000582015
-0.000247135
0.00070309
-0.000308518
0.000834856
-0.000368014
-0.00044219
0.000985452
-0.000177574
0.000241452
-0.000179585
0.000235347
-0.000178913
0.000227998
-0.000175255
0.000219284
-0.000168288
0.00020907
-0.000157663
0.000197208
-0.000143008
0.000183537
-0.000123926
0.000167883
-9.99961e-05
0.000150061
-7.07736e-05
0.000129871
-3.57902e-05
0.000107103
5.44383e-06
8.15331e-05
5.34384e-05
5.29274e-05
0.00010872
2.10432e-05
0.000171832
-1.43706e-05
0.000243323
-5.3563e-05
0.000323755
-9.67954e-05
0.000413676
-0.000144276
0.000513679
-0.000196338
0.000624205
-0.000252865
0.000746083
-0.000314925
0.000879168
-0.000380221
0.00102548
-0.000454831
0.00118284
-0.000525368
-0.000619567
0.00136021
-0.000147072
0.000241578
-0.000144285
0.00023256
-0.000138258
0.000221971
-0.000128642
0.000209668
-0.000115061
0.00019549
-9.71163e-05
0.000179263
-7.43813e-05
0.000160802
-4.64042e-05
0.000139906
-1.27077e-05
0.000116365
2.721e-05
8.99536e-05
7.38743e-05
6.04385e-05
0.000127831
2.75767e-05
0.000189644
-8.88596e-06
0.000259893
-4.92054e-05
0.000339166
-9.36438e-05
0.000428056
-0.000142453
0.000527159
-0.000195899
0.000637041
-0.000254157
0.000758323
-0.000317619
0.000891393
-0.000385935
0.00103713
-0.000460664
0.00119518
-0.000538273
0.00136762
-0.000627265
0.00155142
-0.000709174
-0.000824048
0.0017559
-0.000114498
0.000237102
-0.000106559
0.000224621
-9.47815e-05
0.000210194
-7.87644e-05
0.000193651
-5.80798e-05
0.000174805
-3.22727e-05
0.000153456
-8.60854e-07
0.00012939
3.6665e-05
0.00010238
8.08397e-05
7.21899e-05
0.000132222
3.85711e-05
0.000191395
1.26615e-06
0.000258954
-3.99829e-05
0.000335515
-8.54472e-05
0.0004217
-0.00013539
0.000518134
-0.000190077
0.000625431
-0.00024975
0.000744205
-0.000314673
0.000875009
-0.000384962
0.00101845
-0.000461062
0.00117485
-0.000542337
0.00134504
-0.000630848
0.00152852
-0.000721751
0.00172724
-0.000825985
0.00193756
-0.000919501
-0.00105517
0.00216869
-7.98821e-05
-6.64286e-05
0.000211167
-4.84917e-05
0.000192257
-2.56156e-05
0.000170774
2.68407e-06
0.000146505
3.692e-05
0.00011922
7.76333e-05
8.86768e-05
0.000125392
5.4622e-05
0.000180788
1.67936e-05
0.000244437
-2.50779e-05
0.00031697
-7.12668e-05
0.000399034
-0.000122047
0.000491279
-0.000177692
0.000594355
-0.000238466
0.000708901
-0.000304623
0.00083553
-0.00037638
0.000974831
-0.000453973
0.00112731
-0.000537441
0.00129349
-0.000627243
0.00147361
-0.000722459
0.00166827
-0.000825509
0.00187694
-0.000930416
0.00210118
-0.00105023
0.00233702
-0.00115534
-0.00131119
0.00259304
-2.38814e-05
0.00019182
6.44681e-07
0.000167731
3.08633e-05
0.000140556
6.73186e-05
0.00011005
0.000110584
7.59552e-05
0.00016126
3.80009e-05
0.000219973
-4.09112e-06
0.00028737
-5.06043e-05
0.000364118
-0.000101825
0.000450889
-0.000158038
0.000548362
-0.00021952
0.000657207
-0.000286537
0.000778074
-0.000359333
0.000911582
-0.000438131
0.0010583
-0.000523097
0.00121873
-0.000614408
0.0013933
-0.000712007
0.00158233
-0.000816271
0.00178597
-0.000926098
0.00200439
-0.00104393
0.00223707
-0.0011631
0.00248493
-0.00129809
0.00274398
-0.00141439
-0.00158871
0.0030215
2.11335e-05
0.000166175
5.27071e-05
0.000136157
9.07852e-05
0.000102478
0.000135974
6.4861e-05
0.00018891
2.302e-05
0.000250251
-2.33405e-05
0.00032068
-7.452e-05
0.000400892
-0.000130817
0.000491591
-0.000192524
0.000593477
-0.000259924
0.000707236
-0.000333278
0.000833523
-0.000412824
0.000972952
-0.000498762
0.00112607
-0.000591248
0.00129334
-0.00069037
0.00147512
-0.000796185
0.00167166
-0.000908546
0.00188298
-0.00102759
0.0021091
-0.00115222
0.00234959
-0.00128442
0.00260398
-0.00141749
0.0028722
-0.00156631
0.00315072
-0.00169291
-0.00188262
0.00344463
6.87093e-05
0.000133798
0.000107825
9.70418e-05
0.00015432
5.59827e-05
0.000208864
1.03165e-05
0.000272154
-4.02695e-05
0.000344904
-9.60905e-05
0.000427842
-0.000157458
0.000521698
-0.000224673
0.000627194
-0.00029802
0.000745027
-0.000377757
0.000875853
-0.000464105
0.00102027
-0.000557242
0.00117879
-0.000657285
0.00135183
-0.000764285
0.00153967
-0.000878212
0.00174242
-0.000998929
0.00196008
-0.00112621
0.00219227
-0.00125978
0.00243877
-0.00139873
0.00269849
-0.00154414
0.00297093
-0.00168993
0.00325486
-0.00185023
0.0035477
-0.00198576
-0.00218623
0.00385131
0.000118985
9.42177e-05
0.000166178
4.98487e-05
0.000221691
4.69534e-07
0.000286256
-5.42486e-05
0.000360624
-0.000114637
0.000445555
-0.000181021
0.000541806
-0.000253709
0.000650118
-0.000332986
0.000771198
-0.0004191
0.000905698
-0.000512257
0.00105419
-0.0006126
0.00121716
-0.000720204
0.00139493
-0.000835061
0.0015877
-0.000957055
0.00179549
-0.001086
0.00201805
-0.00122149
0.00225505
-0.00136322
0.00250562
-0.00151034
0.00276922
-0.00166232
0.00304407
-0.00181899
0.00332958
-0.00197544
0.00362327
-0.00214393
0.00392398
-0.00228647
-0.00249189
0.00422965
0.000172143
4.69206e-05
0.000227994
-6.00252e-06
0.000293171
-6.47067e-05
0.00036846
-0.000129538
0.000454656
-0.000200834
0.000552546
-0.000278911
0.000662889
-0.000364052
0.000786399
-0.000456496
0.000923721
-0.000556422
0.0010754
-0.000663938
0.00124187
-0.000779063
0.00142338
-0.000901716
0.00162002
-0.00103171
0.00183167
-0.0011687
0.00205796
-0.0013123
0.00229824
-0.00146176
0.00255173
-0.00161671
0.00281705
-0.00177567
0.00309323
-0.0019385
0.00337793
-0.00210369
0.00367041
-0.00226793
0.00396706
-0.00244057
0.00426834
-0.00258775
-0.00279174
0.00456819
0.000228412
0.000293544
-7.11351e-05
0.000369066
-0.000140228
0.000455806
-0.000216279
0.000554583
-0.00029961
0.000666176
-0.000390504
0.000791308
-0.000489184
0.000930613
-0.000595801
0.00108461
-0.000710418
0.00125366
-0.000832991
0.00143795
-0.000963357
0.00163746
-0.00110122
0.00185189
-0.00124614
0.00208072
-0.00139752
0.00232314
-0.00155471
0.002578
-0.00171662
0.00284402
-0.00188273
0.00311938
-0.00205103
0.0034026
-0.00222171
0.00369099
-0.00239208
0.00398365
-0.00256059
0.0042762
-0.00273312
0.00457066
-0.00288221
-0.00307851
0.00485744
0.000363125
-0.000146208
0.000449695
-0.000226798
0.000548612
-0.000315196
0.000660681
-0.000411679
0.000786633
-0.000516456
0.000927095
-0.000629646
0.00108255
-0.000751258
0.00125331
-0.000881178
0.00143947
-0.00101915
0.00164088
-0.00116476
0.0018571
-0.00131744
0.00208743
-0.00147647
0.00233082
-0.00164092
0.00258599
-0.00180988
0.00285128
-0.00198192
0.00312492
-0.00215637
0.00340475
-0.00233085
0.00368882
-0.00250579
0.00397439
-0.00267764
0.00426041
-0.00284661
0.00454228
-0.00301499
0.00482331
-0.00316325
-0.00334707
0.00509187
0.000437043
-0.000231899
0.00053536
-0.000325115
0.000647135
-0.000426971
0.000773116
-0.000537659
0.00091392
-0.000657261
0.00107001
-0.000785731
0.00124162
-0.000922874
0.00142877
-0.00106833
0.00163119
-0.00122156
0.00184828
-0.00138185
0.00207915
-0.00154831
0.00232257
-0.00171989
0.002577
-0.00189535
0.00284062
-0.0020735
0.00311138
-0.00225268
0.00338708
-0.00243206
0.00366536
-0.00260913
0.00394404
-0.00278447
0.00422053
-0.00295413
0.00449382
-0.0031199
0.00475966
-0.00328082
0.00502216
-0.00342574
-0.00359395
0.00526903
0.000515583
-0.000328882
0.000626302
-0.000435834
0.000751524
-0.000552193
0.000891869
-0.000678004
0.00104777
-0.00081316
0.00121942
-0.00095738
0.00140673
-0.00111019
0.00160932
-0.00127092
0.00182644
-0.00143869
0.00205702
-0.00161243
0.00229962
-0.00179091
0.00255249
-0.00197276
0.00281361
-0.00215647
0.00308073
-0.00234063
0.00335151
-0.00252345
0.0036235
-0.00270405
0.00389437
-0.00288
0.00416196
-0.00305206
0.0044241
-0.00321627
0.00467996
-0.00337576
0.00492616
-0.00352703
0.00516708
-0.00366666
-0.00381825
0.00539139
0.000598974
0.000722658
-0.000559518
0.000861749
-0.000691284
0.00101666
-0.000832917
0.00118755
-0.000984044
0.00137424
-0.00114407
0.00157623
-0.00131218
0.00179263
-0.00148732
0.00202217
-0.00166823
0.00226324
-0.0018535
0.00251388
-0.00204155
0.00277186
-0.00223075
0.00303479
-0.0024194
0.00330015
-0.00260599
0.00356548
-0.00278878
0.00382836
-0.00296693
0.00408671
-0.00313836
0.00433865
-0.00330401
0.00458266
-0.00346028
0.00481826
-0.00361135
0.0050432
-0.00375197
0.00526177
-0.00388523
-0.00402092
0.00546443
0.000824396
-0.000696569
0.000977537
-0.000844426
0.00114688
-0.00100226
0.0013322
-0.00116936
0.00153286
-0.00134474
0.00174785
-0.00152717
0.00197573
-0.00171519
0.00221468
-0.00190718
0.00246256
-0.00210138
0.00271696
-0.00229595
0.00297531
-0.0024891
0.00323501
-0.0026791
0.0034935
-0.00286447
0.00374843
-0.00304371
0.00399769
-0.00321619
0.00423965
-0.00338032
0.00447296
-0.00353732
0.00469685
-0.00368417
0.0049113
-0.0038258
0.00511524
-0.00395591
0.0053126
-0.00408259
-0.00420441
0.0054961
0.000931263
-0.000847161
0.00109831
-0.00101147
0.00128152
-0.00118548
0.00148019
-0.00136802
0.00169314
-0.00155769
0.0019188
-0.00175282
0.00215516
-0.00195155
0.00239988
-0.00215191
0.00265039
-0.00235189
0.00290398
-0.00254953
0.00315792
-0.00274305
0.00340964
-0.00293082
0.00365678
-0.0031116
0.00389736
-0.00328429
0.00412978
-0.00344861
0.00435303
-0.00360357
0.00456645
-0.00375074
0.00476999
-0.00388771
0.00496413
-0.00401994
0.00514881
-0.00414059
0.00532747
-0.00426125
-0.00437194
0.005495
0.00104273
0.00122313
-0.00119187
0.00141914
-0.00138149
0.0016295
-0.00157838
0.00185245
-0.00178064
0.00208582
-0.00198619
0.0023271
-0.00219284
0.00257355
-0.00239836
0.00282232
-0.00260065
0.00307059
-0.00279781
0.00331574
-0.00298819
0.00355544
-0.00317052
0.00378778
-0.00334394
0.00401135
-0.00350787
0.00422521
-0.00366247
0.00442906
-0.00380743
0.00462288
-0.00394455
0.00480732
-0.00407215
0.00498324
-0.00419586
0.00515131
-0.00430866
0.00531444
-0.00442439
-0.00452682
0.00546933
0.00135067
-0.00138461
0.00155788
-0.0015887
0.00177769
-0.00179818
0.00200776
-0.00201071
0.00224541
-0.00222385
0.00248773
-0.00243516
0.00273174
-0.00264237
0.00297453
-0.00284344
0.00321344
-0.00303671
0.00344615
-0.0032209
0.00367084
-0.00339521
0.00388621
-0.00355931
0.00409154
-0.0037132
0.00428659
-0.00385751
0.00447172
-0.00399256
0.00464749
-0.00412032
0.00481506
-0.00423972
0.00497552
-0.00435632
0.00512998
-0.00446312
0.00528082
-0.00457522
-0.00467202
0.00542602
0.00147923
-0.00158815
0.00169549
-0.00180496
0.00192199
-0.00202468
0.00215588
-0.0022446
0.00239409
-0.00246206
0.0026335
-0.00267457
0.0028711
-0.00287997
0.00310417
-0.00307652
0.00333042
-0.00326296
0.0035481
-0.00343858
0.00375602
-0.00360313
0.00395357
-0.00375687
0.00414075
-0.00390038
0.00431795
-0.00403471
0.00448608
-0.00416069
0.00464611
-0.00428035
0.00479951
-0.00439313
0.00494741
-0.00450421
0.00509117
-0.00460688
0.00523258
-0.00471663
-0.00480997
0.00537053
0.00160678
0.00182946
-0.00202764
0.0020595
-0.00225472
0.00229366
-0.00247877
0.00252868
-0.00269708
0.00276144
-0.00290733
0.00298916
-0.00310769
0.00320955
-0.0032969
0.00342089
-0.0034743
0.00362208
-0.00363978
0.00381268
-0.00379372
0.00399276
-0.00393695
0.00416292
-0.00407054
0.00432408
-0.00419587
0.00447752
-0.00431413
0.00462441
-0.00442724
0.00476638
-0.0045351
0.00490441
-0.00464224
0.00503997
-0.00474244
0.00517428
-0.00485094
-0.00494249
0.00530679
0.00195714
-0.00225375
0.00218736
-0.00248493
0.00241825
-0.00270966
0.00264657
-0.0029254
0.00286946
-0.00313022
0.00308459
-0.00332282
0.00329029
-0.00350259
0.00348551
-0.00366953
0.00366991
-0.00382417
0.00384368
-0.0039675
0.00400754
-0.0041008
0.00416253
-0.00422554
0.00430991
-0.00434325
0.00445114
-0.00445536
0.00458745
-0.00456354
0.00472044
-0.00466809
0.00485086
-0.00477266
0.00498022
-0.00487181
0.00510913
-0.00497984
-0.00507087
0.00523751
0.00207598
-0.0024801
0.002303
-0.00271196
0.0025273
-0.00293396
0.0027459
-0.003144
0.00295643
-0.00334074
0.00315718
-0.00352357
0.00334717
-0.00369259
0.00352612
-0.00384847
0.00369433
-0.00399238
0.00385259
-0.00412576
0.00400205
-0.00425026
0.00414405
-0.00436754
0.00428
-0.00447921
0.00441138
-0.00458674
0.00453935
-0.00469151
0.00466539
-0.00479413
0.00478994
-0.00489721
0.00491459
-0.00499646
0.00503927
-0.00510453
-0.005196
0.0051644
0.00218363
0.00240432
-0.00293265
0.00261919
-0.00314882
0.00282575
-0.00335056
0.00302226
-0.00353726
0.00320775
-0.00370907
0.00338198
-0.00386682
0.00354532
-0.00401182
0.00369865
-0.00414571
0.00384319
-0.0042703
0.00398033
-0.0043874
0.00411155
-0.00449877
0.00423827
-0.00460592
0.00436185
-0.00471032
0.0044833
-0.00481297
0.00460393
-0.00491475
0.0047239
-0.00501718
0.00484487
-0.00511742
0.00496607
-0.00522573
-0.00531848
0.00508856
0.00248986
-0.00314432
0.00269309
-0.00335205
0.00288606
-0.00354353
0.00306777
-0.00371897
0.00323798
-0.00387929
0.00339714
-0.00402597
0.00354616
-0.00416084
0.00368633
-0.00428588
0.00381911
-0.00440308
0.00394601
-0.0045143
0.00406849
-0.00462125
0.00418785
-0.00472528
0.00430528
-0.00482775
0.00442163
-0.00492931
0.00453796
-0.00503109
0.00465424
-0.00513347
0.00477218
-0.00523536
0.00489032
-0.00534388
-0.00543878
0.00501062
0.00255884
0.00274896
-0.00354216
0.00292759
-0.00372217
0.0030945
-0.00388587
0.00325011
-0.00403491
0.00339543
-0.00417128
0.00353177
-0.00429718
0.00366065
-0.00441476
0.00378363
-0.00452606
0.00390218
-0.00463285
0.00401765
-0.00473671
0.00413116
-0.00483879
0.0042437
-0.00494029
0.00435594
-0.00504155
0.00446873
-0.00514388
0.00458191
-0.00524665
0.0046972
-0.00535065
0.00481248
-0.00545916
-0.00555726
0.00493096
0.00278748
-0.00371842
0.00295175
-0.00388644
0.00310448
-0.0040386
0.00324667
-0.00417709
0.00337969
-0.00430431
0.00350511
-0.00442261
0.00362454
-0.00453419
0.00373948
-0.004641
0.00385129
-0.00474467
0.00396114
-0.00484655
0.00406995
-0.00494761
0.00417851
-0.00504885
0.00428733
-0.00515037
0.00439704
-0.00525359
0.00450747
-0.00535707
0.0046203
-0.00546348
0.00473281
-0.00557167
-0.00567424
0.0048498
0.00280989
0.00296036
-0.00403692
0.0031
-0.00417823
0.00323021
-0.0043073
0.0033526
-0.0044267
0.00346883
-0.00453883
0.00358045
-0.00464581
0.00368886
-0.00474941
0.00379523
-0.00485103
0.00390051
-0.00495184
0.00400546
-0.00505256
0.00411066
-0.00515404
0.00421649
-0.00525621
0.0043234
-0.0053605
0.00443125
-0.00546492
0.00454158
-0.00557381
0.00465146
-0.00568156
-0.00579
0.00476721
0.00295548
-0.00417459
0.00308338
-0.00430613
0.00320316
-0.00442709
0.00331655
-0.00454008
0.00342514
-0.00464742
0.00353037
-0.00475104
0.00363345
-0.00485249
0.00373536
-0.00495294
0.00383686
-0.00505334
0.00393853
-0.00515423
0.00404077
-0.00525628
0.00414391
-0.00535934
0.00424816
-0.00546476
0.0043535
-0.00557025
0.00446101
-0.00568132
0.00456825
-0.0057888
-0.00590542
0.00468368
0.00293918
0.0030568
-0.00442376
0.0031677
-0.00453799
0.00327354
-0.00464593
0.00337583
-0.00474971
0.00347581
-0.00485102
0.0035745
-0.00495117
0.00367268
-0.00505113
0.00377093
-0.0051516
0.0038697
-0.005253
0.00396926
-0.00535584
0.00406986
-0.00545994
0.00417157
-0.00556647
0.00427449
-0.00567317
0.00437884
-0.00578567
0.00448243
-0.00589239
-0.00601989
0.00459689
0.00302113
-0.00453256
0.00312456
-0.00464141
0.00322416
-0.00474553
0.00332126
-0.0048468
0.0034169
-0.00494667
0.00351192
-0.00504619
0.00360692
-0.00514612
0.00370233
-0.00524701
0.00379847
-0.00534915
0.00389554
-0.00545291
0.00399371
-0.00555812
0.00409299
-0.00566575
0.0041936
-0.00577378
0.0042953
-0.00588737
0.00439762
-0.0059947
-0.00612111
0.00449884
0.00298026
0.00307741
-0.00473856
0.00317179
-0.00483991
0.00326453
-0.00493954
0.00335648
-0.00503862
0.00344828
-0.005138
0.00354041
-0.00523825
0.00363318
-0.00533977
0.00372681
-0.00544278
0.00382144
-0.00554754
0.00391721
-0.00565389
0.00401407
-0.00576261
0.00411225
-0.00587196
0.0042112
-0.00598632
0.00431186
-0.00609535
-0.00622183
0.00441258
0.00302637
0.00311636
-0.0049299
0.00320538
-0.00502856
0.00329411
-0.00512735
0.00338305
-0.00522693
0.00347253
-0.00532773
0.0035628
-0.00543003
0.003654
-0.00553399
0.00374624
-0.00563978
0.00383962
-0.00574726
0.00393409
-0.00585709
0.00402983
-0.00596769
0.00412653
-0.00608302
0.00422463
-0.00619345
-0.00632053
0.00432333
0.0030586
-0.00501614
0.00314438
-0.00511433
0.00323022
-0.0052132
0.00331651
-0.00531322
0.00340349
-0.00541471
0.00349133
-0.00551787
0.00358015
-0.0056228
0.00367001
-0.00572964
0.003761
-0.00583825
0.00385308
-0.00594916
0.00394642
-0.00606103
0.00404072
-0.00617733
0.00413657
-0.00628931
-0.00641729
0.00423334
0.00299904
0.0030819
-0.00519719
0.00316508
-0.00529638
0.00324886
-0.005397
0.00333342
-0.00549927
0.00341887
-0.00560333
0.00350532
-0.00570925
0.0035928
-0.00581712
0.00368139
-0.00592684
0.00377106
-0.00603884
0.00386198
-0.00615195
0.00395391
-0.00626925
0.00404741
-0.00638281
-0.00651164
0.00414176
0.00301821
0.00309888
-0.00537704
0.00318023
-0.00547835
0.0032624
-0.00558144
0.00334549
-0.00568642
0.00342955
-0.00579332
0.00351464
-0.00590221
0.00360082
-0.00601302
0.00368807
-0.00612608
0.00377655
-0.00624043
0.00386604
-0.00635875
0.00395711
-0.00647387
-0.00660359
0.00404905
0.00303173
0.0031107
-0.00555732
0.00319051
-0.00566125
0.00327122
-0.00576713
0.0033529
-0.00587499
0.00343558
-0.00598489
0.00351931
-0.00609676
0.00360411
-0.00621088
0.00369011
-0.00632643
0.00377713
-0.00644577
0.0038657
-0.00656244
-0.00669301
0.00395511
0.00304035
0.00311779
-0.00573868
0.00319611
-0.00584546
0.00327538
-0.00595426
0.00335562
-0.00606514
0.0034369
-0.00617804
0.00351921
-0.00629318
0.0036027
-0.00640993
0.00368719
-0.00653026
0.0037732
-0.00664844
-0.00677984
0.00386003
0.00304427
-0.00581374
0.0031202
-0.00592138
0.00319703
-0.00603109
0.00327481
-0.00614292
0.00335359
-0.00625682
0.00343339
-0.00637298
0.00351433
-0.00649086
0.00359625
-0.00661218
0.00367964
-0.00673184
-0.00686402
0.00376382
0.00297
0.0030435
-0.00599488
0.00311788
-0.00610547
0.00319317
-0.00621821
0.00326943
-0.00633308
0.00334667
-0.00645022
0.00342502
-0.00656921
0.00350433
-0.00669149
0.00358506
-0.00681257
-0.0069455
0.00366654
0.00296606
0.00303795
-0.00617736
0.00311073
-0.00629099
0.00318444
-0.00640679
0.0032591
-0.00652488
0.00333482
-0.00664493
0.00341146
-0.00676814
0.00348948
-0.00689059
-0.00702421
0.0035682
0.00295728
0.00302751
-0.00636122
0.00309864
-0.00647791
0.00317068
-0.00659692
0.00324373
-0.00671799
0.00331768
-0.00684208
0.00339295
-0.00696585
-0.00710011
0.00346885
0.00294355
0.00301207
0.00308146
-0.00666631
0.00315181
-0.00678834
0.00322302
-0.00691329
0.00329548
-0.00703831
-0.00717315
0.00336852
0.00299146
0.00305908
-0.00685595
0.00312751
-0.00698173
0.00319713
-0.00710793
-0.00724328
0.00326726
0.00296557
0.00303119
-0.00704735
0.00309792
-0.00717466
-0.00731047
0.00316511
0.0029341
0.00299791
-0.00723848
-0.00737467
0.00306211
0.00289713
0.00295831
0.00289713
0.00723847
0.00737467
0.00295831
0.0029341
0.00704735
0.00299791
0.00717466
0.00731047
0.00306211
0.00296557
0.00685595
0.00303119
0.00698173
0.00309792
0.00710793
0.00724328
0.00316511
0.00299146
0.00666631
0.00305907
0.00678834
0.00312751
0.00691329
0.00319713
0.00703831
0.00717315
0.00326726
0.00294355
0.00636122
0.00301207
0.00647791
0.00308146
0.00659692
0.00315181
0.00671799
0.00322302
0.00684208
0.00329548
0.00696585
0.00710011
0.00336852
0.00295728
0.00617736
0.00302751
0.00629099
0.00309864
0.00640679
0.00317068
0.00652488
0.00324373
0.00664493
0.00331768
0.00676814
0.00339294
0.00689059
0.00702421
0.00346884
0.00296605
0.00599488
0.00303795
0.00610547
0.00311073
0.00621821
0.00318443
0.00633308
0.00325909
0.00645022
0.00333481
0.00656921
0.00341146
0.00669149
0.00348948
0.00681257
0.0069455
0.00356819
0.00297
0.00581374
0.0030435
0.00592138
0.00311787
0.00603109
0.00319317
0.00614292
0.00326943
0.00625682
0.00334667
0.00637298
0.00342502
0.00649086
0.00350433
0.00661218
0.00358506
0.00673184
0.00686402
0.00366653
0.00296921
0.00563392
0.00304427
0.00573869
0.00312019
0.00584546
0.00319703
0.00595426
0.00327481
0.00606514
0.00335359
0.00617804
0.00343338
0.00629318
0.00351432
0.00640992
0.00359625
0.00653026
0.00367964
0.00664844
0.00677984
0.00376382
0.00304035
0.00555732
0.00311778
0.00566125
0.00319611
0.00576713
0.00327538
0.00587499
0.00335562
0.00598489
0.00343689
0.00609676
0.0035192
0.00621088
0.00360269
0.00632643
0.00368719
0.00644577
0.00377319
0.00656244
0.006693
0.00386003
0.00303173
0.00537705
0.0031107
0.00547835
0.0031905
0.00558144
0.00327122
0.00568642
0.00335289
0.00579332
0.00343557
0.00590221
0.00351931
0.00601302
0.0036041
0.00612608
0.00369011
0.00624043
0.00377713
0.00635875
0.00386569
0.00647387
0.00660359
0.00395511
0.00301821
0.0051972
0.00309887
0.00529638
0.00318022
0.005397
0.0032624
0.00549927
0.00334548
0.00560333
0.00342955
0.00570925
0.00351464
0.00581712
0.00360082
0.00592684
0.00368806
0.00603884
0.00377654
0.00615195
0.00386604
0.00626925
0.0039571
0.00638281
0.00651164
0.00404905
0.00299903
0.00501614
0.0030819
0.00511433
0.00316508
0.0052132
0.00324886
0.00531322
0.00333341
0.00541471
0.00341887
0.00551788
0.00350531
0.00562281
0.0035928
0.00572964
0.00368139
0.00583825
0.00377106
0.00594916
0.00386198
0.00606103
0.00395391
0.00617732
0.00404741
0.00628931
0.00641729
0.00414176
0.0030586
0.00492991
0.00314438
0.00502856
0.00323022
0.00512735
0.00331651
0.00522694
0.00340349
0.00532773
0.00349133
0.00543004
0.00358015
0.00553399
0.00367001
0.00563978
0.003761
0.00574727
0.00385307
0.00585709
0.00394641
0.00596769
0.00404071
0.00608302
0.00413657
0.00619345
0.00632053
0.00423333
0.00302637
0.00473857
0.00311636
0.00483992
0.00320538
0.00493954
0.00329411
0.00503862
0.00338305
0.005138
0.00347253
0.00523825
0.00356279
0.00533977
0.003654
0.00544278
0.00374624
0.00554754
0.00383961
0.00565389
0.00393409
0.00576261
0.00402982
0.00587196
0.00412652
0.00598632
0.00422462
0.00609535
0.00622183
0.00432332
0.00298026
0.00453257
0.00307741
0.00464142
0.00317179
0.00474554
0.00326452
0.00484681
0.00335647
0.00494667
0.00344828
0.00504619
0.00354041
0.00514613
0.00363317
0.00524701
0.0037268
0.00534915
0.00382144
0.00545291
0.0039172
0.00555812
0.00401407
0.00566575
0.00411225
0.00577378
0.0042112
0.00588737
0.00431185
0.0059947
0.00612111
0.00441257
0.00302113
0.00442376
0.00312456
0.00453799
0.00322416
0.00464593
0.00332125
0.00474971
0.0034169
0.00485102
0.00351192
0.00495118
0.00360691
0.00505113
0.00370232
0.0051516
0.00379846
0.00525301
0.00389553
0.00535584
0.00399371
0.00545994
0.00409299
0.00556647
0.0041936
0.00567317
0.0042953
0.00578567
0.00439761
0.00589239
0.00601988
0.00449884
0.00293918
0.00417459
0.0030568