/*--------------------------------*- C++ -*----------------------------------*\
  =========                 |
  \\      /  F ield         | OpenFOAM: The Open Source CFD Toolbox
   \\    /   O peration     | Website:  https://openfoam.org
    \\  /    A nd           | Version:  7
     \\/     M anipulation  |
\*---------------------------------------------------------------------------*/
FoamFile
{
    version     2.0;
    format      ascii;
    class       volVectorField;
    location    "20";
    object      U;
}
// * * * * * * * * * * * * * * * * * * * * * * * * * * * * * * * * * * * * * //

dimensions      [0 1 -1 0 0 0 0];

internalField   nonuniform List<vector> 
24200
(
(-0.148928 0.00177366 3.59177e-21)
(-0.156191 0.00171299 3.48347e-21)
(-0.163045 0.00165585 1.66013e-21)
(-0.169525 0.0016018 1.33756e-21)
(-0.175658 0.00155035 -2.62703e-21)
(-0.181471 0.00150096 7.10978e-22)
(-0.186984 0.00145301 -2.57307e-21)
(-0.192213 0.00140587 2.05874e-21)
(-0.197173 0.00135878 2.24827e-21)
(-0.201872 0.00131091 -6.04827e-23)
(-0.206317 0.0012613 1.47384e-22)
(-0.210508 0.00120884 8.25289e-22)
(-0.214444 0.00115229 8.54817e-22)
(-0.218116 0.00109024 -1.89925e-21)
(-0.221513 0.0010212 -1.1123e-22)
(-0.224618 0.000943672 -2.68936e-21)
(-0.227411 0.000856361 -4.42646e-21)
(-0.229867 0.000758523 2.93929e-21)
(-0.231963 0.000650506 1.3559e-21)
(-0.233677 0.000534563 1.01916e-21)
(-0.234998 0.000415875 1.30397e-21)
(-0.235936 0.000303815 1.54657e-21)
(-0.23654 0.000213375 9.79746e-22)
(-0.236898 0.00016251 -9.57176e-22)
(-0.237112 0.000166683 1.04071e-21)
(-0.237493 0.000266878 -5.8849e-22)
(-0.148039 0.00530998 5.82533e-21)
(-0.155171 0.00512722 9.50095e-22)
(-0.161885 0.00495495 6.68764e-21)
(-0.168213 0.00479187 -4.25981e-21)
(-0.174184 0.00463649 7.97672e-21)
(-0.179822 0.00448715 5.33734e-21)
(-0.185147 0.00434207 3.8289e-21)
(-0.190175 0.00419928 1.42789e-21)
(-0.194919 0.0040566 -2.80966e-21)
(-0.199387 0.00391152 6.25378e-21)
(-0.203584 0.00376119 3.36414e-21)
(-0.207511 0.00360236 -4.51204e-21)
(-0.211165 0.0034313 -1.74368e-21)
(-0.214538 0.00324389 8.15527e-21)
(-0.217618 0.00303569 -7.58537e-22)
(-0.220388 0.00280224 7.13569e-21)
(-0.222827 0.00253964 5.25632e-21)
(-0.224912 0.00224553 -5.92134e-21)
(-0.226617 0.00192063 -1.53554e-21)
(-0.227918 0.00157114 5.80788e-22)
(-0.228802 0.00121175 -1.71773e-21)
(-0.22927 0.000869536 -3.60113e-21)
(-0.229363 0.000588617 2.07134e-21)
(-0.229161 0.000424385 2.21106e-21)
(-0.228737 0.000424805 -6.92167e-22)
(-0.228383 0.000707137 5.59117e-21)
(-0.146264 0.0088127 -1.98098e-20)
(-0.153135 0.00850639 -1.35864e-20)
(-0.159568 0.00821734 -6.60722e-21)
(-0.165594 0.00794336 -2.13687e-20)
(-0.171241 0.00768195 -6.94219e-21)
(-0.17653 0.00743039 -1.6624e-20)
(-0.181481 0.00718571 -6.3599e-21)
(-0.186108 0.00694466 2.22162e-21)
(-0.190421 0.00670361 -1.06879e-20)
(-0.194429 0.00645848 3.45284e-21)
(-0.198134 0.00620462 -6.48927e-21)
(-0.201536 0.00593671 3.11172e-21)
(-0.20463 0.00564873 3.16846e-21)
(-0.207409 0.00533395 -5.4826e-21)
(-0.20986 0.00498515 9.13493e-21)
(-0.211965 0.004595 -1.37676e-20)
(-0.213703 0.00415694 1.03968e-21)
(-0.215051 0.00366657 -3.45447e-22)
(-0.215981 0.00312413 3.20969e-21)
(-0.216467 0.00253811 -4.1872e-21)
(-0.216489 0.00193033 -3.32932e-22)
(-0.216036 0.00134223 -3.06092e-21)
(-0.21513 0.000844064 -3.94061e-21)
(-0.21384 0.000532178 -1.06072e-22)
(-0.212184 0.00049294 5.38124e-22)
(-0.210376 0.000899459 -9.87798e-21)
(-0.143608 0.0122597 -4.93467e-21)
(-0.150088 0.0118274 -7.33605e-21)
(-0.156101 0.0114188 -1.49016e-20)
(-0.161677 0.0110309 2.69465e-20)
(-0.166839 0.0106601 5.34037e-22)
(-0.171608 0.0103026 2.26403e-20)
(-0.176001 0.00995435 1.61508e-20)
(-0.180029 0.00961074 -9.0682e-21)
(-0.183702 0.00926684 1.70843e-20)
(-0.187025 0.00891706 -4.87337e-21)
(-0.189998 0.00855507 8.59553e-21)
(-0.19262 0.00817368 1.31329e-21)
(-0.194885 0.00776477 4.03236e-21)
(-0.196782 0.0073193 -1.0541e-20)
(-0.198299 0.00682749 -7.02636e-21)
(-0.199418 0.00627935 7.72772e-21)
(-0.200119 0.0056656 7.14825e-21)
(-0.200375 0.00497944 -1.25007e-20)
(-0.200162 0.00421942 9.78594e-21)
(-0.199448 0.00339405 2.77378e-21)
(-0.198207 0.00252856 4.1925e-21)
(-0.196412 0.00167339 1.56219e-20)
(-0.194062 0.000918744 -3.99058e-21)
(-0.19121 0.000404363 -3.33598e-21)
(-0.187815 0.00026904 -7.90412e-21)
(-0.183867 0.000696561 8.74648e-22)
(-0.140076 0.015629 -6.67903e-22)
(-0.146038 0.0150675 1.7153e-20)
(-0.151494 0.0145358 1.14967e-20)
(-0.156471 0.0140298 -5.03331e-21)
(-0.160991 0.0135451 -1.27927e-20)
(-0.165072 0.0130767 8.33015e-21)
(-0.168727 0.0126194 -4.36306e-21)
(-0.171965 0.0121675 -3.43398e-21)
(-0.174793 0.0117147 8.89388e-21)
(-0.177212 0.0112541 7.83656e-22)
(-0.179221 0.0107778 3.59342e-21)
(-0.180816 0.010277 -6.1624e-21)
(-0.181989 0.00974168 -1.65206e-20)
(-0.182729 0.0091609 -7.29059e-21)
(-0.18302 0.0085227 -7.01205e-22)
(-0.182846 0.00781469 3.91792e-21)
(-0.182186 0.00702508 -1.5785e-20)
(-0.181015 0.00614437 9.8746e-21)
(-0.179306 0.00516841 -3.05862e-21)
(-0.17703 0.00410331 1.0165e-20)
(-0.174151 0.00297343 -1.65161e-20)
(-0.170633 0.0018313 7.11448e-21)
(-0.166444 0.000777028 -1.37771e-20)
(-0.161621 -1.02499e-05 8.78968e-22)
(-0.156104 -0.000310824 8.43948e-21)
(-0.149368 -2.00361e-05 3.25985e-21)
(-0.140995 0.0182046 5.26452e-22)
(-0.145758 0.0175452 -1.59748e-20)
(-0.149992 0.0169161 -5.1925e-21)
(-0.153716 0.0163119 1.55572e-21)
(-0.156943 0.0157266 -3.80175e-20)
(-0.159684 0.0151537 -2.01587e-20)
(-0.161944 0.0145866 1.70879e-20)
(-0.163728 0.0140176 -2.41948e-20)
(-0.165032 0.0134387 -4.7792e-21)
(-0.165854 0.0128405 -3.09466e-20)
(-0.166186 0.012213 -8.78957e-21)
(-0.166017 0.0115446 3.03133e-20)
(-0.165335 0.0108227 3.00925e-20)
(-0.164123 0.0100338 9.24176e-22)
(-0.162365 0.00916345 1.52607e-21)
(-0.160038 0.00819774 -7.98059e-21)
(-0.157121 0.00712458 -2.01389e-20)
(-0.153586 0.00593657 5.19923e-21)
(-0.149405 0.00463564 -3.11282e-20)
(-0.144542 0.00324135 1.63491e-20)
(-0.138953 0.00180093 2.2225e-21)
(-0.13258 0.000411993 -7.62306e-21)
(-0.125429 -0.000725735 -2.16753e-20)
(-0.117556 -0.00126645 1.31578e-20)
(-0.107438 -0.00134266 1.75751e-20)
(-0.134968 0.0212169 2.02141e-20)
(-0.138906 0.0204247 2.30508e-20)
(-0.142255 0.0196668 3.0267e-20)
(-0.14503 0.0189368 2.50999e-20)
(-0.147242 0.0182277 3.43535e-20)
(-0.148898 0.017532 2.93058e-20)
(-0.149999 0.0168417 7.68304e-21)
(-0.150546 0.0161484 6.81651e-21)
(-0.150532 0.0154426 -1.76075e-20)
(-0.149952 0.0147142 1.00167e-20)
(-0.148793 0.0139517 1.56824e-20)
(-0.147045 0.0131425 -2.6813e-21)
(-0.144691 0.0122729 -2.63963e-20)
(-0.141714 0.011328 -3.07006e-21)
(-0.138096 0.0102923 1.19883e-20)
(-0.133816 0.00915001 3.10198e-21)
(-0.128853 0.00788709 4.03793e-21)
(-0.123182 0.00649306 1.39652e-20)
(-0.116777 0.00496492 1.01963e-20)
(-0.109606 0.00331511 -1.10652e-20)
(-0.101625 0.00157954 8.77592e-21)
(-0.0927612 -0.000156131 1.25399e-20)
(-0.0829474 -0.00171538 7.4319e-21)
(-0.0726416 -0.00260225 -4.20999e-20)
(-0.0586098 -0.00331238 -1.74889e-20)
(-0.12797 0.0240839 -3.61935e-20)
(-0.13095 0.0231532 -2.64809e-20)
(-0.133274 0.0222603 -4.08374e-20)
(-0.134952 0.0213977 -2.34904e-20)
(-0.135991 0.0205574 -1.30222e-20)
(-0.136395 0.0197309 1.07773e-20)
(-0.13616 0.0189092 -1.14423e-20)
(-0.135283 0.0180828 -3.50653e-21)
(-0.133755 0.0172414 -1.54293e-20)
(-0.131566 0.0163737 5.28279e-21)
(-0.128701 0.0154675 -3.6235e-21)
(-0.125146 0.0145094 -1.26665e-20)
(-0.120883 0.0134849 1.72847e-20)
(-0.115893 0.0123785 5.22954e-20)
(-0.110157 0.0111737 -9.74813e-21)
(-0.103654 0.00985418 2.69219e-20)
(-0.096365 0.00840437 -2.18283e-21)
(-0.0882675 0.00681167 -1.58844e-21)
(-0.0793381 0.00506863 1.41797e-20)
(-0.0695527 0.00318072 -1.52922e-20)
(-0.0588744 0.00116906 -1.90516e-20)
(-0.0472432 -0.000890624 -2.3582e-20)
(-0.0344453 -0.00290043 2.64026e-20)
(-0.021711 -0.00434769 5.55361e-21)
(-0.00333656 -0.00505137 3.91095e-20)
(-0.120007 0.0267856 -2.67235e-20)
(-0.121901 0.0257106 2.87761e-20)
(-0.123061 0.0246763 5.1827e-20)
(-0.123495 0.0236741 3.86393e-20)
(-0.123207 0.0226951 5.34387e-21)
(-0.122194 0.0217298 -9.84625e-21)
(-0.120451 0.0207683 2.20788e-20)
(-0.117969 0.0198002 2.4125e-20)
(-0.114737 0.0188142 4.23679e-20)
(-0.110739 0.0177985 -4.90609e-20)
(-0.10596 0.0167402 -3.3091e-20)
(-0.10038 0.0156253 3.50472e-20)
(-0.0939811 0.0144391 -4.13829e-20)
(-0.0867423 0.0131655 -4.5473e-20)
(-0.0786434 0.0117883 -1.49319e-20)
(-0.0696643 0.0102908 -5.25164e-20)
(-0.0597855 0.00865707 -8.92921e-21)
(-0.0489887 0.00687359 -4.45942e-21)
(-0.0372535 0.00492968 -2.13733e-20)
(-0.0245653 0.00282669 3.04744e-20)
(-0.0108883 0.000567888 -4.83765e-20)
(0.00377455 -0.00177599 4.27158e-20)
(0.0198124 -0.0041844 -3.22287e-20)
(0.0355199 -0.00629201 -8.15951e-21)
(0.0578098 -0.00689215 6.07486e-21)
(-0.111089 0.0293033 2.34532e-20)
(-0.111765 0.0280782 2.64596e-21)
(-0.111625 0.026896 -1.12378e-20)
(-0.11067 0.0257474 -4.11582e-20)
(-0.108901 0.0246225 -1.54317e-20)
(-0.10631 0.0235109 -3.04566e-20)
(-0.102888 0.0224017 -1.3837e-20)
(-0.098622 0.0212839 1.22397e-20)
(-0.0934974 0.0201454 -2.52681e-21)
(-0.087496 0.0189739 4.3656e-20)
(-0.0805981 0.017756 7.25262e-20)
(-0.0727829 0.0164776 -4.59693e-20)
(-0.0640288 0.0151238 -9.56893e-21)
(-0.0543142 0.013679 -1.17045e-20)
(-0.043618 0.0121269 3.62235e-20)
(-0.0319203 0.0104517 4.04181e-22)
(-0.0192025 0.00863769 2.8469e-20)
(-0.00544986 0.00667187 4.57637e-20)
(0.00935612 0.00454132 6.23613e-21)
(0.0252152 0.00224759 6.09856e-21)
(0.0421753 -0.000226102 5.41979e-20)
(0.0601386 -0.00279703 -1.39959e-20)
(0.0797003 -0.00554089 1.05774e-20)
(0.0984751 -0.0081709 4.31042e-20)
(0.125358 -0.00942014 -3.45332e-20)
(-0.101216 0.0316194 4.06094e-20)
(-0.100546 0.0302388 1.63854e-20)
(-0.0989671 0.0289028 -4.26737e-20)
(-0.0964782 0.0276016 6.53667e-21)
(-0.093073 0.0263242 4.61834e-20)
(-0.0887414 0.0250596 -2.28019e-21)
(-0.0834699 0.0237961 -4.72129e-20)
(-0.077242 0.0225219 -5.17174e-20)
(-0.0700386 0.0212246 -5.82498e-20)
(-0.0618387 0.0198912 -5.56396e-20)
(-0.0526199 0.0185085 -3.41104e-20)
(-0.0423592 0.0170621 1.23531e-20)
(-0.0310334 0.0155376 -1.30354e-20)
(-0.0186198 0.0139197 4.06478e-20)
(-0.00509706 0.0121931 -6.07386e-20)
(0.0095538 0.010343 2.62427e-20)
(0.0253501 0.00835448 -2.34599e-20)
(0.0423014 0.00621631 -3.03744e-20)
(0.060427 0.00391401 3.25143e-21)
(0.0797013 0.0014549 1.8082e-20)
(0.100215 -0.00119988 -3.67676e-20)
(0.121686 -0.00393136 1.34282e-20)
(0.14515 -0.00695192 -2.11719e-20)
(0.166918 -0.00989701 -1.42755e-20)
(0.199032 -0.0119029 -3.62622e-20)
(-0.0903855 0.0337179 -3.3632e-20)
(-0.0882378 0.0321768 -6.10914e-20)
(-0.0850812 0.0306821 3.95875e-20)
(-0.0809095 0.029223 -2.7445e-20)
(-0.0757123 0.027788 -1.15343e-20)
(-0.0694751 0.0263653 -1.85109e-20)
(-0.0621804 0.0249426 9.83386e-20)
(-0.053808 0.0235075 9.91733e-21)
(-0.0443354 0.0220475 3.92781e-20)
(-0.0337389 0.0205493 1.37265e-20)
(-0.0219936 0.0189995 -2.08162e-21)
(-0.00907495 0.0173845 2.12973e-20)
(0.00504138 0.0156899 5.09014e-20)
(0.0203781 0.0139016 -7.64897e-21)
(0.0369556 0.0120053 4.2476e-20)
(0.0547906 0.0099875 2.46163e-20)
(0.073898 0.00783481 -1.18706e-20)
(0.0942785 0.00553878 1.66622e-20)
(0.115957 0.00308329 -1.22032e-21)
(0.13886 0.000486664 -2.11808e-20)
(0.163175 -0.00231522 3.92813e-21)
(0.188286 -0.00515467 -6.22617e-22)
(0.216038 -0.00834586 5.89807e-20)
(0.240652 -0.0114953 -4.93075e-20)
(0.278589 -0.014067 8.06419e-20)
(-0.0785873 0.0355843 8.14076e-20)
(-0.0748268 0.033879 6.6102e-21)
(-0.0699484 0.0322217 2.83311e-21)
(-0.0639412 0.0306012 -2.48989e-20)
(-0.0567899 0.0290052 1.19056e-20)
(-0.0484761 0.0274215 -3.51877e-20)
(-0.0389781 0.0258374 -6.01048e-20)
(-0.028272 0.0242402 -5.92593e-21)
(-0.0163327 0.0226172 3.25217e-21)
(-0.00313372 0.0209551 -1.03006e-20)
(0.0113512 0.019241 1.58457e-20)
(0.0271476 0.0174616 -5.0184e-20)
(0.0442793 0.0156034 -4.06236e-20)
(0.0627674 0.0136534 3.40975e-21)
(0.0826298 0.0115987 -1.60708e-20)
(0.103878 0.00942761 1.50786e-20)
(0.126522 0.00712849 -2.36309e-20)
(0.150547 0.00469654 -1.58459e-20)
(0.17599 0.00211377 -2.65854e-20)
(0.202692 -0.000588888 2.39127e-20)
(0.231024 -0.00349565 3.99712e-20)
(0.25981 -0.00640765 7.26528e-20)
(0.292182 -0.00964335 -1.88261e-20)
(0.319387 -0.0129404 2.75077e-20)
(0.363632 -0.0157893 -6.13897e-20)
(-0.0658005 0.0372062 -8.76456e-20)
(-0.0602866 0.0353343 -3.98511e-20)
(-0.0535362 0.0335126 6.77363e-20)
(-0.0455331 0.0317291 4.43994e-20)
(-0.0362576 0.0299715 5.00075e-20)
(-0.0256867 0.0282271 3.23639e-20)
(-0.0137951 0.026483 5.8261e-20)
(-0.000555637 0.0247265 1.84419e-20)
(0.0140594 0.0229449 -1.74332e-20)
(0.0300778 0.0211254 1.50786e-20)
(0.0475265 0.0192557 6.19219e-20)
(0.06643 0.0173228 1.75532e-20)
(0.0868097 0.0153149 7.57841e-20)
(0.108683 0.01322 -5.33365e-20)
(0.13206 0.0110272 -3.11953e-20)
(0.156944 0.00872682 -2.55418e-20)
(0.183339 0.00630907 2.20752e-21)
(0.211198 0.00377258 8.37317e-20)
(0.240585 0.00110014 -7.86825e-21)
(0.271195 -0.00167203 -7.77067e-22)
(0.303701 -0.00462196 -6.76001e-20)
(0.33608 -0.00758929 -6.45799e-20)
(0.373283 -0.0107274 -5.35975e-20)
(0.4027 -0.0141544 2.87143e-22)
(0.453475 -0.0169687 2.78932e-20)
(-0.051993 0.0385734 5.00841e-20)
(-0.0445771 0.0365347 1.21884e-19)
(-0.035795 0.0345489 -1.33142e-19)
(-0.0256254 0.032604 -5.72688e-20)
(-0.0140438 0.0306875 -6.16194e-20)
(-0.00102292 0.0287866 -4.50598e-20)
(0.0134661 0.0268886 -1.33418e-20)
(0.0294528 0.024981 3.17434e-20)
(0.0469665 0.0230514 -3.64432e-20)
(0.0660351 0.0210878 7.64646e-21)
(0.0866836 0.0190785 -6.61907e-21)
(0.108933 0.0170118 1.49106e-20)
(0.1328 0.0148773 -4.39825e-20)
(0.158291 0.0126647 3.72112e-20)
(0.185408 0.0103648 3.17042e-20)
(0.214135 0.00797012 -2.66726e-20)
(0.244463 0.00547373 1.89343e-20)
(0.276301 0.0028751 -5.51018e-20)
(0.309752 0.00016602 2.28361e-20)
(0.344291 -0.00263506 -2.16167e-20)
(0.381025 -0.00554074 -5.6113e-21)
(0.416784 -0.00855892 6.78096e-20)
(0.458818 -0.0114439 -4.72886e-20)
(0.489969 -0.0150082 5.32483e-22)
(0.547064 -0.0175016 4.32934e-20)
(-0.0276414 0.0374755 -5.65816e-20)
(-0.0166559 0.0353293 6.21606e-20)
(-0.00413567 0.0332282 9.82881e-20)
(0.00994865 0.03116 3.16528e-20)
(0.0256281 0.029112 6.35441e-20)
(0.0429344 0.027072 1.97527e-20)
(0.0618984 0.0250281 1.66784e-20)
(0.0825491 0.0229685 8.2891e-20)
(0.104912 0.0208824 2.60885e-20)
(0.129007 0.0187589 -5.12574e-20)
(0.154847 0.0165883 3.4776e-20)
(0.182438 0.0143612 -2.93588e-20)
(0.211771 0.0120692 -3.36556e-20)
(0.242829 0.00970542 -6.56023e-21)
(0.275567 0.00726382 6.73437e-20)
(0.309959 0.0047422 -4.84871e-22)
(0.345843 0.00213451 -1.48831e-20)
(0.383379 -0.000541675 -1.0254e-20)
(0.421743 -0.00332822 8.72054e-20)
(0.462589 -0.00608115 -2.89993e-20)
(0.501378 -0.00914632 -5.31991e-20)
(0.547916 -0.011626 -5.48817e-20)
(0.580265 -0.0153347 7.34635e-20)
(0.642895 -0.0172809 4.2315e-20)
(-0.0094037 0.0381561 -1.06915e-19)
(0.00397187 0.0358573 -8.08517e-21)
(0.0190433 0.0336101 -6.46327e-20)
(0.0358443 0.0314027 5.86367e-20)
(0.0544089 0.0292234 -3.61056e-20)
(0.07477 0.0270605 -3.74142e-20)
(0.0969578 0.0249032 -9.03682e-20)
(0.120998 0.0227408 -7.73689e-20)
(0.146908 0.0205636 -7.41081e-21)
(0.1747 0.0183624 -1.41029e-20)
(0.204371 0.0161287 -4.46156e-21)
(0.235907 0.0138549 2.23134e-20)
(0.269274 0.0115345 6.38656e-21)
(0.304426 0.00916262 -6.60985e-20)
(0.341276 0.00673341 -7.72584e-20)
(0.379769 0.00425268 2.52387e-20)
(0.41965 0.00169796 3.04508e-20)
(0.461138 -0.000863125 -1.19364e-20)
(0.503064 -0.0035879 -2.45392e-20)
(0.547653 -0.00607603 8.35737e-20)
(0.58898 -0.00916932 3.6526e-20)
(0.639266 -0.0111249 2.33791e-20)
(0.672252 -0.0149623 2.0205e-21)
(0.738976 -0.0162141 -5.63805e-20)
(0.0102327 0.0385813 3.71528e-20)
(0.0262029 0.0361425 6.85361e-20)
(0.0440448 0.033765 -4.47634e-20)
(0.0637956 0.031438 -9.97118e-21)
(0.0854905 0.0291507 -3.43809e-20)
(0.109161 0.0268929 -3.69373e-20)
(0.134833 0.0246546 5.02323e-20)
(0.162523 0.0224269 6.57904e-20)
(0.192237 0.0202014 1.30365e-20)
(0.223966 0.0179703 3.01424e-20)
(0.257684 0.0157268 -2.53213e-20)
(0.293347 0.0134648 -3.83568e-20)
(0.330882 0.0111787 1.55176e-20)
(0.370198 0.00886618 1.42302e-19)
(0.411152 0.0065188 3.38281e-20)
(0.453644 0.00415434 2.04556e-20)
(0.497307 0.00172063 -7.63682e-20)
(0.542402 -0.000640474 6.18993e-20)
(0.587427 -0.0032499 -1.51915e-20)
(0.635074 -0.00538311 -7.83997e-20)
(0.678291 -0.00845926 -1.05276e-20)
(0.731092 -0.00983478 -3.08979e-20)
(0.764148 -0.0137562 -6.46893e-20)
(0.832884 -0.0142551 -1.64373e-20)
(0.0313874 0.0387617 2.90513e-20)
(0.0501763 0.036202 -2.56303e-22)
(0.0710283 0.0337173 7.72609e-21)
(0.0939815 0.0312982 -2.57901e-20)
(0.119069 0.0289356 2.77556e-20)
(0.146317 0.0266205 3.6143e-20)
(0.17574 0.0243448 -2.37757e-20)
(0.207339 0.0221009 -6.21825e-20)
(0.241097 0.0198818 1.95735e-20)
(0.276975 0.0176811 -4.9985e-20)
(0.31491 0.0154929 1.20554e-20)
(0.35481 0.0133122 -5.48039e-20)
(0.396549 0.0111335 4.35536e-20)
(0.439974 0.00895629 -9.87649e-20)
(0.484866 0.00676618 3.61154e-20)
(0.531063 0.00459581 -1.84721e-20)
(0.578084 0.00235266 3.97323e-20)
(0.62618 0.000264543 -2.15555e-20)
(0.673611 -0.0021698 -4.30866e-20)
(0.72329 -0.00390333 4.37687e-20)
(0.767574 -0.00689261 8.68889e-20)
(0.821235 -0.0077115 5.34487e-20)
(0.853763 -0.0116522 1.0952e-20)
(0.921947 -0.0114303 9.00751e-21)
(0.0542029 0.0387154 -3.82663e-20)
(0.0760561 0.0360613 -4.07157e-20)
(0.100178 0.033501 4.28849e-20)
(0.126603 0.031027 6.20693e-20)
(0.155359 0.028632 7.57403e-20)
(0.186458 0.0263089 -1.62414e-22)
(0.219895 0.0240511 -5.45692e-20)
(0.255643 0.0218522 5.23643e-20)
(0.29365 0.0197063 1.49377e-21)
(0.333831 0.0176077 -7.26159e-21)
(0.376068 0.0155505 5.27074e-20)
(0.420205 0.0135294 5.30442e-20)
(0.466041 0.0115372 -3.81629e-20)
(0.513346 0.00957385 -1.37381e-20)
(0.561808 0.00761595 1.44969e-20)
(0.611182 0.00571018 -7.69493e-21)
(0.660885 0.00372131 3.89693e-20)
(0.711096 0.00195268 6.68754e-20)
(0.759988 -0.000248957 6.32313e-20)
(0.810377 -0.00159497 -6.32229e-20)
(0.854715 -0.00442167 -8.47991e-20)
(0.907319 -0.00478493 -2.27585e-20)
(0.938669 -0.00867639 -1.91706e-21)
(1.00354 -0.007858 -2.37394e-21)
(0.0788451 0.0384692 1.14713e-19)
(0.104028 0.035756 5.39417e-20)
(0.131696 0.0331617 3.89897e-20)
(0.161877 0.0306809 -1.21487e-20)
(0.19458 0.0283084 -3.48694e-20)
(0.229796 0.0260385 -9.7619e-21)
(0.267486 0.023866 2.3659e-20)
(0.307582 0.0217852 4.50547e-20)
(0.349976 0.0197902 -7.04453e-20)
(0.394521 0.0178745 1.39292e-20)
(0.441023 0.0160305 -5.28393e-21)
(0.489241 0.0142507 -5.37425e-20)
(0.538883 0.0125235 2.52528e-23)
(0.589619 0.0108472 6.81226e-20)
(0.641042 0.00918699 -8.58688e-20)
(0.692803 0.00759781 -1.91424e-20)
(0.74425 0.00591015 -3.7989e-20)
(0.795429 0.00447098 -3.88246e-20)
(0.844596 0.00254069 -3.05542e-20)
(0.894182 0.00151631 1.25444e-19)
(0.937394 -0.00109438 9.6481e-21)
(0.987002 -0.00116211 -1.22267e-20)
(1.01646 -0.00495176 9.23592e-21)
(1.07546 -0.00374912 -3.98094e-20)
(0.134297 0.0353331 -1.01436e-20)
(0.1658 0.0327576 -3.58564e-20)
(0.200021 0.0303301 4.17338e-21)
(0.236941 0.028047 2.60982e-20)
(0.276513 0.0259039 1.93203e-20)
(0.318649 0.0238957 4.92594e-20)
(0.363216 0.0220162 -3.7362e-20)
(0.410035 0.0202574 7.67289e-20)
(0.458871 0.01861 5.83245e-20)
(0.509434 0.0170622 -1.30775e-19)
(0.561379 0.0156013 5.80358e-20)
(0.614307 0.0142084 -5.30548e-20)
(0.667781 0.0128766 -1.75046e-22)
(0.721295 0.0115589 -2.59328e-20)
(0.774399 0.0103094 -7.41629e-21)
(0.826407 0.0089399 3.92235e-21)
(0.877208 0.00780015 1.41239e-20)
(0.925291 0.00614196 -2.14072e-20)
(0.972524 0.0053333 -6.21577e-20)
(1.01333 0.00294492 -9.41841e-22)
(1.05825 0.00298373 4.49118e-20)
(1.08507 -0.000692044 -7.9276e-21)
(1.13625 0.000662184 4.14141e-20)
(0.167077 0.0348518 -9.17539e-20)
(0.202707 0.0323601 -1.65751e-20)
(0.241241 0.0300584 -6.55738e-20)
(0.282619 0.0279439 -2.03406e-20)
(0.326734 0.0260122 3.13766e-20)
(0.373427 0.0242566 1.83248e-20)
(0.422482 0.0226677 -8.90386e-21)
(0.47362 0.0212332 -7.87582e-20)
(0.526498 0.0199376 1.82469e-20)
(0.580712 0.0187613 1.14702e-19)
(0.635798 0.0176832 -4.49353e-20)
(0.691245 0.016674 6.61058e-20)
(0.746509 0.0157175 1.99959e-20)
(0.801002 0.0147556 1.13616e-20)
(0.854191 0.0138318 -1.89147e-20)
(0.905399 0.0127567 1.37474e-21)
(0.95439 0.0118483 2.71392e-20)
(0.999966 0.0104139 -6.95673e-20)
(1.04342 0.00969228 1.83766e-20)
(1.08061 0.00747668 -4.48882e-20)
(1.11958 0.00743266 4.70841e-20)
(1.1431 0.00384378 3.05584e-21)
(1.1853 0.00509362 9.28224e-21)
(0.202582 0.0343845 1.40666e-20)
(0.242618 0.0320542 2.91453e-20)
(0.285708 0.0299628 -2.89981e-21)
(0.331727 0.0281068 2.56292e-20)
(0.380489 0.0264794 -8.20842e-20)
(0.431738 0.0250695 -1.18095e-19)
(0.485147 0.0238614 2.36212e-21)
(0.540316 0.0228344 -6.32518e-20)
(0.596776 0.021963 5.39322e-20)
(0.653995 0.021216 -9.08477e-20)
(0.711391 0.0205602 -8.50212e-21)
(0.768344 0.0199535 3.21547e-20)
(0.824226 0.0193673 4.00602e-20)
(0.878397 0.0187341 5.34052e-20)
(0.930285 0.0180818 4.95883e-20)
(0.979271 0.0172325 -4.34392e-20)
(1.02506 0.0164555 2.85079e-20)
(1.06681 0.0151499 6.58967e-20)
(1.10535 0.0143808 -2.22861e-20)
(1.1379 0.0122421 6.56636e-20)
(1.17025 0.0119524 -2.54302e-20)
(1.18996 0.00839422 -2.28071e-20)
(1.22295 0.00931742 -2.12401e-20)
(0.24101 0.0340162 -3.3452e-20)
(0.285699 0.0319369 1.89603e-20)
(0.333531 0.0301506 1.01393e-19)
(0.384291 0.0286506 4.51459e-20)
(0.437683 0.0274242 1.19097e-19)
(0.493331 0.0264519 4.34472e-20)
(0.550773 0.0257073 6.16274e-20)
(0.60947 0.0251569 1.52583e-20)
(0.668818 0.0247609 3.7371e-20)
(0.728156 0.0244729 7.08331e-20)
(0.786796 0.0242445 -1.33263e-20)
(0.844039 0.0240198 -1.18594e-19)
(0.89921 0.0237572 8.53812e-20)
(0.951665 0.0233827 -5.47076e-20)
(1.00086 0.022909 -4.77637e-20)
(1.04628 0.0221781 8.18931e-20)
(1.08766 0.021411 -8.79443e-20)
(1.12451 0.0201092 -3.67774e-20)
(1.15739 0.0191671 -2.6517e-20)
(1.18467 0.0169861 2.43932e-20)
(1.21029 0.0163352 -3.98336e-20)
(1.22598 0.0127333 -6.08721e-21)
(1.25033 0.0131907 2.2128e-20)
(0.332058 0.0321149 3.54737e-20)
(0.384729 0.0307356 -2.35305e-19)
(0.440206 0.0296918 5.62907e-21)
(0.498058 0.02896 -5.0327e-20)
(0.557759 0.0285076 -2.63274e-20)
(0.618698 0.0282923 -1.32838e-20)
(0.680189 0.0282631 -5.50642e-20)
(0.741493 0.028362 -1.6446e-19)
(0.801845 0.0285251 2.85014e-21)
(0.860481 0.028688 -1.1103e-20)
(0.916668 0.0287817 -1.97046e-21)
(0.96974 0.0287543 -1.51693e-19)
(1.01912 0.0285301 3.03454e-20)
(1.06435 0.0281121 3.4731e-20)
(1.10508 0.0273679 -6.09459e-20)
(1.14117 0.0264822 5.01782e-21)
(1.17245 0.0250526 6.30115e-20)
(1.19935 0.0238338 -1.68883e-20)
(1.22115 0.0214973 -2.25789e-20)
(1.24046 0.0204229 2.94399e-20)
(1.25222 0.0167069 1.8145e-20)
(1.26908 0.0166485 -8.74671e-20)
(0.381715 0.0327002 -7.48009e-20)
(0.439203 0.0318317 1.76144e-20)
(0.499217 0.0313398 -1.92783e-20)
(0.561167 0.0311849 7.70976e-20)
(0.624361 0.0313152 1.15645e-19)
(0.688032 0.0316676 1.14876e-19)
(0.751353 0.0321698 1.60645e-19)
(0.813479 0.0327434 8.71267e-20)
(0.873575 0.0333066 -9.73589e-20)
(0.930854 0.033781 5.28336e-20)
(0.984615 0.0340889 5.86314e-20)
(1.03427 0.0341735 1.56167e-19)
(1.07937 0.0339647 -4.25422e-20)
(1.11963 0.033465 -5.97138e-20)
(1.15489 0.0325713 -4.44517e-20)
(1.1852 0.0314478 2.18477e-20)
(1.21066 0.0297761 7.95491e-20)
(1.23172 0.0282083 -3.06879e-20)
(1.24826 0.0256315 -4.26141e-20)
(1.26201 0.0241219 -5.13405e-20)
(1.27023 0.0202428 1.54693e-20)
(1.28101 0.0196891 5.74296e-20)
(0.434578 0.0338047 1.98664e-20)
(0.496702 0.0335453 -2.06028e-20)
(0.560886 0.033688 7.2272e-20)
(0.62636 0.0341707 9.66913e-21)
(0.692263 0.034917 -3.96009e-20)
(0.75768 0.0358389 -5.7635e-20)
(0.821676 0.0368409 -9.1696e-20)
(0.883341 0.0378246 7.40103e-20)
(0.941831 0.0386936 -1.10072e-19)
(0.996408 0.0393608 6.2614e-20)
(1.04647 0.0397471 3.35357e-21)
(1.09159 0.0397996 -8.40528e-20)
(1.1315 0.0394624 2.39028e-20)
(1.16613 0.0387467 9.29782e-21)
(1.19555 0.0375831 3.33871e-20)
(1.22001 0.0361275 4.07289e-20)
(1.23982 0.0341335 -7.89973e-20)
(1.25552 0.032181 3.63773e-20)
(1.26736 0.0293194 2.74677e-20)
(1.27651 0.0274028 5.31969e-20)
(1.28173 0.0233381 5.64194e-20)
(1.28791 0.0223605 -2.72827e-20)
(0.556811 0.0359658 1.47945e-19)
(0.624588 0.0368029 -1.09465e-19)
(0.692791 0.0379526 -5.7683e-20)
(0.760405 0.0393096 -1.33694e-20)
(0.826401 0.0407595 -2.01761e-20)
(0.889785 0.0421847 -7.48542e-20)
(0.949648 0.0434712 -6.10469e-20)
(1.00521 0.0445147 1.41216e-19)
(1.05586 0.0452281 -9.6794e-20)
(1.10118 0.0455411 -1.01526e-19)
(1.14094 0.0454143 9.10588e-20)
(1.1751 0.0448146 1.21078e-21)
(1.20385 0.04377 -4.60668e-20)
(1.22745 0.042247 -1.62609e-20)
(1.24635 0.0404006 -2.66698e-20)
(1.26104 0.0380457 7.19919e-20)
(1.2721 0.0357072 -3.60496e-20)
(1.28 0.0325566 4.33066e-20)
(1.28553 0.0302864 -2.07595e-20)
(1.2884 0.0260386 1.81774e-20)
(1.29126 0.024734 -5.31601e-20)
(0.618935 0.0391564 -5.39263e-20)
(0.689513 0.040715 1.06913e-19)
(0.759446 0.0425211 -9.8862e-20)
(0.8276 0.0444392 2.51577e-20)
(0.892888 0.0463302 1.67718e-20)
(0.954329 0.0480598 6.53087e-20)
(1.01109 0.0495068 4.34071e-20)
(1.06255 0.050569 -1.92518e-21)
(1.10829 0.0511706 8.34917e-20)
(1.14811 0.0512607 1.28951e-19)
(1.18204 0.0508225 3.39046e-21)
(1.21031 0.0498528 3.25962e-20)
(1.23328 0.0484004 7.32667e-20)
(1.25144 0.046468 -5.32483e-20)
(1.26538 0.0442102 3.91925e-20)
(1.27567 0.0414951 -1.11562e-19)
(1.28293 0.0387971 6.45221e-20)
(1.2877 0.0353853 2.41362e-20)
(1.29054 0.0328242 -1.49117e-20)
(1.29165 0.0284158 -4.08473e-20)
(1.29226 0.0268831 -4.47059e-20)
(0.68231 0.0431448 -1.20308e-19)
(0.754696 0.0454113 -2.88762e-22)
(0.825192 0.047818 -5.73623e-20)
(0.892606 0.0502018 -1.24126e-19)
(0.955868 0.0524055 -1.01224e-19)
(1.01409 0.0542877 -6.9855e-20)
(1.06662 0.0557312 4.71081e-21)
(1.11303 0.0566489 5.40919e-20)
(1.15317 0.0569872 -5.52426e-21)
(1.18711 0.0567245 -1.03235e-19)
(1.21514 0.0558731 -9.94928e-20)
(1.23768 0.0544629 3.67674e-20)
(1.25533 0.0525635 -9.22429e-21)
(1.26867 0.0502112 -1.74054e-20)
(1.27839 0.0475554 2.34065e-20)
(1.28509 0.0445114 1.85085e-20)
(1.28939 0.0414977 -2.15971e-20)
(1.29181 0.037873 -8.60668e-20)
(1.29275 0.03508 5.65041e-20)
(1.29263 0.0305468 6.21222e-20)
(1.29176 0.0288692 8.42558e-20)
(0.819068 0.0508322 -6.8429e-20)
(0.888855 0.0537379 1.35302e-19)
(0.954221 0.056451 1.21082e-19)
(1.01421 0.0588071 3.94224e-20)
(1.0681 0.0606708 4.49961e-20)
(1.11549 0.0619427 5.33195e-20)
(1.15624 0.0625627 -1.43793e-19)
(1.19045 0.0625097 -6.25454e-21)
(1.21848 0.0617974 -5.20052e-20)
(1.24083 0.0604698 6.76498e-20)
(1.25814 0.058589 -3.16399e-20)
(1.27109 0.0562414 -5.64284e-20)
(1.28037 0.0534915 4.17612e-20)
(1.28669 0.0504762 -4.96744e-20)
(1.2906 0.0471532 3.18214e-20)
(1.29271 0.0438746 -8.88923e-20)
(1.29343 0.0400935 6.80609e-20)
(1.29308 0.0371155 1.57464e-20)
(1.29214 0.032501 -1.90465e-20)
(1.29037 0.030738 -2.58288e-20)
(0.881517 0.0568732 -1.15384e-19)
(0.949301 0.0601352 5.63377e-21)
(1.01138 0.0630103 -6.70002e-20)
(1.06699 0.0653413 -5.88527e-20)
(1.1157 0.0670136 7.83994e-20)
(1.15736 0.0679587 1.19994e-20)
(1.19215 0.0681539 5.33006e-20)
(1.22044 0.0676166 4.90733e-20)
(1.24284 0.0663978 1.78145e-20)
(1.26002 0.0645714 -5.25962e-20)
(1.27274 0.0622266 -2.13903e-20)
(1.28176 0.0594602 4.61994e-22)
(1.28777 0.0563577 -2.97776e-20)
(1.29144 0.0530353 6.65401e-20)
(1.29328 0.0494906 -1.67997e-20)
(1.29383 0.0459965 2.3243e-20)
(1.29338 0.0421154 4.09633e-20)
(1.29222 0.0389825 -1.18147e-19)
(1.29076 0.0343349 8.62056e-20)
(1.28845 0.0325173 -3.70849e-22)
(0.940973 0.0633922 7.13015e-20)
(1.00552 0.0668373 4.6693e-21)
(1.06324 0.0696907 3.64223e-20)
(1.11363 0.0718187 -6.14024e-20)
(1.15657 0.0731415 8.13613e-20)
(1.19224 0.0736327 -1.7836e-19)
(1.2211 0.0733126 1.0895e-20)
(1.24378 0.0722386 4.087e-20)
(1.26106 0.0704962 1.61773e-20)
(1.27373 0.0681838 -5.14704e-20)
(1.28261 0.0654099 1.93682e-20)
(1.28846 0.0622746 6.53919e-20)
(1.29194 0.058876 2.82455e-20)
(1.29365 0.0553036 -5.50029e-20)
(1.29401 0.0515929 3.11506e-20)
(1.2935 0.0479259 1.56426e-21)
(1.29227 0.0439953 -2.11198e-20)
(1.29063 0.0407194 3.32874e-22)
(1.28884 0.0360919 -2.38604e-20)
(1.28625 0.0342192 -1.30129e-19)
(1.05671 0.0736603 -1.44962e-20)
(1.10921 0.0763087 -8.40129e-21)
(1.15382 0.0780717 9.45626e-20)
(1.19074 0.0789163 -4.41578e-20)
(1.22047 0.0788636 1.0509e-19)
(1.24371 0.0779783 -4.90068e-20)
(1.2613 0.0763548 2.195e-20)
(1.27411 0.074106 -1.03981e-21)
(1.28301 0.0713473 4.98266e-20)
(1.2888 0.0681973 3.43847e-20)
(1.29219 0.0647529 1.70061e-20)
(1.29378 0.0611169 7.74984e-21)
(1.29409 0.0573494 4.05386e-20)
(1.29344 0.0535207 -6.58286e-20)
(1.29222 0.0497143 5.75682e-20)
(1.29051 0.0457757 -7.38777e-20)
(1.28861 0.0423518 4.18709e-20)
(1.28662 0.0378033 -1.37358e-21)
(1.2839 0.0358396 7.57353e-20)
(1.10232 0.0804261 2.1187e-20)
(1.14903 0.0827025 6.80694e-20)
(1.1876 0.0839683 5.54662e-20)
(1.21855 0.0842434 -8.56787e-20)
(1.24264 0.0835978 -8.19523e-20)
(1.26078 0.0821366 6.12574e-20)
(1.27391 0.0799838 -1.40093e-19)
(1.28297 0.0772712 2.05418e-20)
(1.28882 0.0741226 -6.53265e-20)
(1.29221 0.0706576 -1.11455e-20)
(1.29377 0.0669653 -6.17157e-20)
(1.29401 0.0631459 -7.53601e-20)
(1.29333 0.059232 3.21842e-20)
(1.29202 0.0553222 1.19111e-19)
(1.29036 0.0514022 4.62157e-20)
(1.28835 0.0474866 6.38858e-20)
(1.28634 0.0438943 1.88533e-20)
(1.28421 0.0394898 3.91899e-20)
(1.2815 0.0373563 -8.78831e-21)
(1.18272 0.0887441 1.2117e-21)
(1.21526 0.0894182 -1.05935e-19)
(1.24053 0.0890734 2.93145e-20)
(1.25948 0.0878245 -4.53847e-20)
(1.27315 0.0858092 3.55937e-20)
(1.28254 0.0831719 1.05823e-19)
(1.28856 0.0800535 -3.81416e-20)
(1.29203 0.0765781 5.07223e-20)
(1.29361 0.0728595 4.69442e-20)
(1.29384 0.068976 1.71461e-20)
(1.29313 0.0650192 1.25802e-21)
(1.29181 0.0609995 2.93763e-20)
(1.29006 0.0570341 -7.59722e-20)
(1.28813 0.0530223 -2.88761e-20)
(1.28596 0.0491476 -6.63707e-20)
(1.28392 0.0453564 -5.58501e-20)
(1.2817 0.0411652 2.37201e-20)
(1.2791 0.0387256 5.51327e-20)
(1.21052 0.0943455 3.66384e-20)
(1.23732 0.0943738 2.28836e-20)
(1.25738 0.0933972 8.88624e-20)