/*--------------------------------*- C++ -*----------------------------------*\
  =========                 |
  \\      /  F ield         | OpenFOAM: The Open Source CFD Toolbox
   \\    /   O peration     | Website:  https://openfoam.org
    \\  /    A nd           | Version:  7
     \\/     M anipulation  |
\*---------------------------------------------------------------------------*/
FoamFile
{
    version     2.0;
    format      ascii;
    class       volScalarField;
    location    "20";
    object      p;
}
// * * * * * * * * * * * * * * * * * * * * * * * * * * * * * * * * * * * * * //

dimensions      [0 2 -2 0 0 0 0];

internalField   nonuniform List<scalar> 
2625
(
-0.0140328
-0.0093555
-0.00458134
0.000284519
0.00523645
0.0102684
0.0153739
0.0205464
0.0257789
0.0310641
0.0363931
0.041759
0.0471539
0.0169578
0.0118531
0.00681219
0.00184505
-0.00303964
-0.00783307
-0.0125272
-0.0171145
-0.0215879
-0.0259413
-0.0301692
-0.0342668
-0.0382299
-0.0420555
-0.0457407
-0.0492836
0.0170358
0.0119425
0.00691484
0.00196256
-0.00290576
-0.0076815
-0.0123568
-0.0169244
-0.0213774
-0.0257098
-0.0299163
-0.0339922
-0.0379336
-0.0417373
-0.0454008
-0.0489222
0.0171159
0.0120405
0.00703121
0.00209779
-0.00275135
-0.00750773
-0.0121636
-0.0167118
-0.0211456
-0.0254592
-0.0296473
-0.0337053
-0.0376294
-0.0414165
-0.0450642
-0.0485705
-0.0519342
0.0171942
0.012133
0.00713787
0.00221854
-0.00261663
-0.00735919
-0.0120015
-0.0165363
-0.020957
-0.0252577
-0.0294333
-0.0334791
-0.0373915
-0.0411672
-0.0448038
-0.0482995
-0.0516531
0.0172714
0.012223
0.00724066
0.00233407
-0.00248844
-0.00721842
-0.0118483
-0.0163707
-0.0207793
-0.025068
-0.0292318
-0.033266
-0.037167
-0.0409315
-0.0445571
-0.048042
-0.051385
-0.0545854
0.0173481
0.0123125
0.00734313
0.0024495
-0.00236006
-0.00707714
-0.0116941
-0.0162039
-0.0205998
-0.0248761
-0.0290275
-0.0330496
-0.0369385
-0.0406912
-0.0443053
-0.0477789
-0.0511109
-0.0543005
0.0174241
0.0124016
0.00744531
0.0025648
-0.00223166
-0.00693567
-0.0115397
-0.0160365
-0.0204197
-0.0246833
-0.0288223
-0.0328322
-0.0367091
-0.04045
-0.0440525
-0.0475148
-0.0508358
-0.0540146
-0.0570513
0.0174995
0.01249
0.00754682
0.00267939
-0.002104
-0.006795
-0.0113861
-0.0158701
-0.0202406
-0.0244918
-0.0286184
-0.0326162
-0.0364812
-0.0402104
-0.0438015
-0.0472527
-0.0505627
-0.0537311
-0.0567575
0.0175743
0.0125778
0.00764757
0.00279317
-0.00197723
-0.00665529
-0.0112335
-0.0157048
-0.0200628
-0.0243015
-0.028416
-0.0324017
-0.0362549
-0.0399726
-0.0435524
-0.0469925
-0.0502918
-0.0534496
-0.056466
0.0176483
0.0126648
0.00774755
0.00290614
-0.00185131
-0.0065165
-0.011082
-0.0155406
-0.019886
-0.0241124
-0.0282147
-0.0321885
-0.03603
-0.0397363
-0.0433048
-0.046734
-0.0500226
-0.0531701
-0.0561763
-0.0590418
0.0177217
0.012751
0.00784677
0.0030183
-0.00172625
-0.0063786
-0.0109313
-0.0153774
-0.0197104
-0.0239245
-0.0280148
-0.0319767
-0.0358066
-0.0395014
-0.0430589
-0.0464771
-0.0497551
-0.0528923
-0.0558886
-0.0587445
0.0177943
0.0128366
0.0079452
0.00312962
-0.00160207
-0.00624165
-0.0107817
-0.0152152
-0.0195358
-0.0237378
-0.0278161
-0.0317662
-0.0355846
-0.0392681
-0.0428145
-0.046222
-0.0494895
-0.0526165
-0.0556029
-0.0584493
-0.0611564
0.0178662
0.0129213
0.00804281
0.00324009
-0.0014788
-0.00610565
-0.0106331
-0.0150541
-0.0193625
-0.0235523
-0.0276187
-0.0315572
-0.0353641
-0.0390365
-0.0425719
-0.0459687
-0.0492258
-0.0523427
-0.0553194
-0.0581563
-0.0608544
0.0179373
0.0130053
0.00813959
0.00334968
-0.00135646
-0.00597064
-0.0104856
-0.0148942
-0.0191903
-0.0233681
-0.0274227
-0.0313496
-0.0351452
-0.0388064
-0.042331
-0.0457173
-0.0489641
-0.052071
-0.0550379
-0.0578655
-0.0605546
-0.0631067
0.0180077
0.0130884
0.00823551
0.00345836
-0.00123507
-0.00583665
-0.0103391
-0.0147354
-0.0190194
-0.0231852
-0.0272281
-0.0311435
-0.0349278
-0.0385781
-0.042092
-0.0454677
-0.0487044
-0.0518014
-0.0547588
-0.057577
-0.0602573
-0.0628009
-0.0652097
0.0180772
0.0131707
0.00833056
0.00356612
-0.00111467
-0.0057037
-0.0101937
-0.0145778
-0.0188497
-0.0230037
-0.0270349
-0.0309389
-0.0347121
-0.0383515
-0.0418547
-0.0452202
-0.0484467
-0.051534
-0.0544818
-0.057291
-0.0599624
-0.0624976
-0.0648984
0.018146
0.0132521
0.0084247
0.00367293
-0.00099527
-0.00557182
-0.0100495
-0.0144214
-0.0186813
-0.0228235
-0.0268432
-0.0307359
-0.034498
-0.0381266
-0.0416194
-0.0449746
-0.0481912
-0.0512688
-0.0542073
-0.0570074
-0.0596701
-0.062197
-0.0645899
-0.0668512
0.0182139
0.0133327
0.00851791
0.00377876
-0.000876905
-0.00544104
-0.00990643
-0.0142662
-0.0185142
-0.0226448
-0.026653
-0.0305345
-0.0342857
-0.0379036
-0.041386
-0.0447311
-0.0479379
-0.0510059
-0.0539352
-0.0567264
-0.0593805
-0.0618991
-0.0642842
-0.0665381
0.0182809
0.0134123
0.00861018
0.00388358
-0.0007596
-0.00531137
-0.00976457
-0.0141123
-0.0183485
-0.0224675
-0.0264643
-0.0303348
-0.0340751
-0.0376825
-0.0411546
-0.0444897
-0.0476868
-0.0507453
-0.0536655
-0.0564479
-0.0590936
-0.0616041
-0.0639814
-0.0662279
-0.0683465
0.018347
0.013491
0.00870147
0.00398738
-0.000643382
-0.00518287
-0.00962393
-0.0139597
-0.0181842
-0.0222917
-0.0262773
-0.0301367
-0.0338664
-0.0374633
-0.0409252
-0.0442505
-0.0474379
-0.0504872
-0.0533984
-0.0561722
-0.0588095
-0.0613119
-0.0636816
-0.0659208
-0.0680325
0.0184123
0.0135688
0.00879176
0.00409013
-0.000528277
-0.00505554
-0.00948454
-0.0138085
-0.0180213
-0.0221174
-0.0260918
-0.0299404
-0.0336595
-0.0372461
-0.040698
-0.0440135
-0.0471915
-0.0502316
-0.053134
-0.0558991
-0.0585282
-0.0610228
-0.0633849
-0.065617
-0.0677218
-0.0697027
0.0184766
0.0136456
0.00888104
0.0041918
-0.000414314
-0.00492942
-0.00934645
-0.0136586
-0.0178599
-0.0219446
-0.0259081
-0.0297459
-0.0334544
-0.0370309
-0.0404729
-0.0437787
-0.0469475
-0.0499786
-0.0528722
-0.055629
-0.05825
-0.0607368
-0.0630914
-0.0653164
-0.0674145
-0.069389
-0.0712436
0.0185399
0.0137214
0.00896926
0.00429237
-0.00030152
-0.00480455
-0.00920967
-0.0135102
-0.0176999
-0.0217735
-0.025726
-0.0295531
-0.0332514
-0.0368177
-0.0402499
-0.0435464
-0.0467059
-0.0497282
-0.0526132
-0.0553617
-0.0579747
-0.0604539
-0.0628012
-0.0650192
-0.0671106
-0.0690789
-0.0709275
0.0186023
0.0137962
0.00905642
0.0043918
-0.000189925
-0.00468094
-0.00907425
-0.0133631
-0.0175416
-0.021604
-0.0255457
-0.0293623
-0.0330503
-0.0366067
-0.0400293
-0.0433164
-0.0464669
-0.0494805
-0.0523571
-0.0550974
-0.0577026
-0.0601743
-0.0625144
-0.0647255
-0.0668104
-0.0687724
-0.0706151
-0.0723428
0.0186637
0.01387
0.00914247
0.00449007
-7.95584e-05
-0.00455864
-0.00894021
-0.0132176
-0.0173847
-0.0214362
-0.0253672
-0.0291734
-0.0328512
-0.0363979
-0.039811
-0.0430889
-0.0462305
-0.0492355
-0.0521038
-0.0548362
-0.0574338
-0.0598981
-0.0622311
-0.0644355
-0.0665139
-0.0684698
-0.0703066
-0.0720287
-0.0736399
0.0187241
0.0139427
0.0092274
0.00458716
2.95508e-05
-0.00443768
-0.00880759
-0.0130735
-0.0172295
-0.0212701
-0.0251905
-0.0289864
-0.0326543
-0.0361912
-0.039595
-0.0428639
-0.0459968
-0.0489934
-0.0518536
-0.0545782
-0.0571682
-0.0596253
-0.0619514
-0.0641492
-0.0662213
-0.0681711
-0.0700022
-0.0717187
-0.0733246
0.0187835
0.0140142
0.00931117
0.00468302
0.000137372
-0.00431808
-0.00867642
-0.012931
-0.017076
-0.0211058
-0.0250157
-0.0288014
-0.0324595
-0.0359869
-0.0393815
-0.0426415
-0.0457658
-0.0487541
-0.0516064
-0.0543234
-0.056906
-0.0593561
-0.0616755
-0.0638667
-0.0659326
-0.0678765
-0.0697019
-0.0714129
-0.0730135
-0.0745091
0.0188417
0.0140847
0.00939377
0.00477764
0.000243873
-0.00419988
-0.00854674
-0.0127901
-0.0169241
-0.0209432
-0.0248428
-0.0286185
-0.0322668
-0.0357849
-0.0391704
-0.0424217
-0.0455377
-0.0485179
-0.0513624
-0.0540719
-0.0566474
-0.0590905
-0.0614033
-0.0635882
-0.0656481
-0.0675862
-0.069406
-0.0711116
-0.0727069
-0.0741973
-0.0755861
0.0188989
0.014154
0.00947515
0.00487099
0.000349024
-0.00408312
-0.00841859
-0.0126508
-0.016774
-0.0207825
-0.0246718
-0.0284377
-0.0320765
-0.0355853
-0.0389619
-0.0422046
-0.0453124
-0.0482847
-0.0511216
-0.0538238
-0.0563923
-0.0588287
-0.0611351
-0.0633138
-0.0653678
-0.0673002
-0.0691145
-0.0708148
-0.072405
-0.0738902
-0.075274
-0.0765635
0.018955
0.0142221
0.0095553
0.00496302
0.000452792
-0.00396782
-0.00829199
-0.0125132
-0.0166256
-0.0206237
-0.0245029
-0.028259
-0.0318884
-0.0353881
-0.038756
-0.0419904
-0.0450901
-0.0480546
-0.0508841
-0.0535792
-0.0561409
-0.0585708
-0.0608709
-0.0630436
-0.0650918
-0.0670187
-0.0688277
-0.0705229
-0.072108
-0.0735881
-0.0749668
-0.0762509
0.0190099
0.0142891
0.00963419
0.00505372
0.000555144
-0.00385402
-0.00816699
-0.0123773
-0.016479
-0.0204669
-0.0243361
-0.0280825
-0.0317026
-0.0351935
-0.0385528
-0.0417789
-0.0448707
-0.0478278
-0.05065
-0.0533382
-0.0558932
-0.0583168
-0.0606108
-0.0627777
-0.0648203
-0.0667419
-0.0685457
-0.0702358
-0.071816
-0.0732911
-0.0746648
-0.0759436
-0.0771293
0.0190636
0.0143548
0.00971177
0.00514305
0.000656047
-0.00374176
-0.00804362
-0.0122431
-0.0163343
-0.020312
-0.0241714
-0.0279083
-0.0315193
-0.0350014
-0.0383523
-0.0415704
-0.0446545
-0.0476042
-0.0504194
-0.0531008
-0.0556495
-0.0580668
-0.060355
-0.0625163
-0.0645535
-0.0664698
-0.0682686
-0.0699538
-0.0715292
-0.0729995
-0.0743683
-0.0756419
-0.0768223
-0.0779186
0.0191161
0.0144192
0.00978803
0.00523098
0.000755466
-0.00363108
-0.00792193
-0.0121107
-0.0161915
-0.0201591
-0.0240088
-0.0277364
-0.0313384
-0.034812
-0.0381547
-0.0413649
-0.0444415
-0.047384
-0.0501924
-0.0528673
-0.0554096
-0.0578211
-0.0601036
-0.0622594
-0.0642914
-0.0662027
-0.0679967
-0.0696771
-0.0712478
-0.0727134
-0.0740775
-0.075346
-0.0765213
-0.0776114
-0.0786161
0.0191675
0.0144824
0.00986293
0.00531748
0.000853368
-0.003522
-0.00780195
-0.0119801
-0.0160506
-0.0200083
-0.0238485
-0.0275669
-0.0311601
-0.0346252
-0.0379599
-0.0411624
-0.0442317
-0.0471672
-0.049969
-0.0526375
-0.0551739
-0.0575796
-0.0598566
-0.0620073
-0.0640343
-0.0659407
-0.06773
-0.0694059
-0.070972
-0.0724331
-0.0737926
-0.0750561
-0.0762264
-0.0773106
-0.0783095
0.0192175
0.0145442
0.00993644
0.0054025
0.000949716
-0.00341457
-0.00768372
-0.0118514
-0.0159118
-0.0198597
-0.0236904
-0.0273998
-0.0309843
-0.0344412
-0.037768
-0.040963
-0.0440252
-0.046954
-0.0497493
-0.0524118
-0.0549424
-0.0573426
-0.0596143
-0.0617599
-0.0637821
-0.065684
-0.0674688
-0.0691402
-0.0707021
-0.0721587
-0.0735138
-0.0747726
-0.075938
-0.0770165
-0.0780097
0.0192663
0.0146047
0.0100085
0.00548603
0.00104447
-0.00330883
-0.00756728
-0.0117245
-0.0157749
-0.0197132
-0.0235346
-0.0272351
-0.0308112
-0.03426
-0.0375791
-0.0407669
-0.0438222
-0.0467444
-0.0495335
-0.0521901
-0.0547151
-0.05711
-0.0593767
-0.0615175
-0.0635352
-0.0654326
-0.0672131
-0.0688804
-0.0704381
-0.0718906
-0.0732414
-0.0744956
-0.0756563
-0.0767294
-0.0777171
0.0193137
0.0146638
0.0100792
0.00556802
0.00113761
-0.00320481
-0.00745267
-0.0115997
-0.0156402
-0.0195689
-0.0233812
-0.027073
-0.0306408
-0.0340817
-0.0373933
-0.040574
-0.0436226
-0.0465385
-0.0493216
-0.0519725
-0.0544922
-0.0568821
-0.059144
-0.0612803
-0.0632935
-0.0651868
-0.0669632
-0.0686266
-0.0701804
-0.0716288
-0.0729755
-0.0742254
-0.0753817
-0.0764496
-0.077432
0.0193598
0.0147215
0.0101483
0.00564843
0.00122907
-0.00310256
-0.00733994
-0.0114768
-0.0155075
-0.0194269
-0.0232302
-0.0269135
-0.0304731
-0.0339063
-0.0372107
-0.0403845
-0.0434266
-0.0463363
-0.0491137
-0.0517592
-0.0542738
-0.0566589
-0.0589162
-0.0610482
-0.0630573
-0.0649467
-0.0667193
-0.0683789
-0.069929
-0.0713736
-0.0727165
-0.0739623
-0.0751142
-0.0761773
-0.0771546
0.0194046
0.0147777
0.0102159
0.00572724
0.00131884
-0.00300212
-0.00722913
-0.011356
-0.0153771
-0.0192872
-0.0230817
-0.0267566
-0.0303083
-0.033734
-0.0370312
-0.0401984
-0.0432342
-0.0461381
-0.04891
-0.0515503
-0.05406
-0.0564405
-0.0586936
-0.0608215
-0.0628268
-0.0647124
-0.0664815
-0.0681376
-0.0696842
-0.0711253
-0.0724646
-0.0737065
-0.0748543
-0.0759128
-0.0768853
0.0194479
0.0148325
0.010282
0.0058044
0.00140686
-0.00290352
-0.00712028
-0.0112373
-0.0152488
-0.0191499
-0.0229357
-0.0266024
-0.0301464
-0.0335647
-0.0368551
-0.0400158
-0.0430456
-0.0459438
-0.0487104
-0.0513459
-0.053851
-0.0562271
-0.0584762
-0.0606003
-0.062602
-0.0644842
-0.0662499
-0.0679028
-0.0694461
-0.070884
-0.0722199
-0.0734582
-0.0746022
-0.0756564
-0.0766243
0.0194898
0.0148857
0.0103464
0.00587987
0.0014931
-0.00280681
-0.00701344
-0.0111207
-0.0151229
-0.019015
-0.0227923
-0.026451
-0.0299874
-0.0333986
-0.0366823
-0.0398368
-0.0428608
-0.0457536
-0.0485152
-0.051146
-0.0536467
-0.0560189
-0.0582642
-0.0603847
-0.0623831
-0.0642621
-0.0660248
-0.0676747
-0.0692151
-0.0706499
-0.0719827
-0.0732176
-0.0743582
-0.0754084
-0.076372
0.0195302
0.0149374
0.0104093
0.00595363
0.00157752
-0.00271203
-0.00690865
-0.0110062
-0.0149992
-0.0188826
-0.0226516
-0.0263024
-0.0298314
-0.0332357
-0.036513
-0.0396615
-0.0426799
-0.0455676
-0.0483244
-0.0509508
-0.0534475
-0.0558159
-0.0580577
-0.060175
-0.0621703
-0.0640464
-0.0658064
-0.0674535
-0.0689912
-0.0704233
-0.0717533
-0.0729851
-0.0741224
-0.075169
-0.0761287
0.0195691
0.0149875
0.0104704
0.00602562
0.00166008
-0.00261923
-0.00680596
-0.0108941
-0.014878
-0.0187527
-0.0225136
-0.0261567
-0.0296785
-0.0330762
-0.0363472
-0.0394899
-0.042503
-0.0453858
-0.0481381
-0.0507603
-0.0532533
-0.0556182
-0.0578568
-0.0599712
-0.0619637
-0.0638373
-0.0655947
-0.0672395
-0.0687748
-0.0702044
-0.0715318
-0.0727609
-0.0738953
-0.0749386
-0.0758946
0.0196064
0.015036
0.0105299
0.00609581
0.00174073
-0.00252845
-0.00670542
-0.0107842
-0.0147592
-0.0186254
-0.0223784
-0.026014
-0.0295288
-0.03292
-0.036185
-0.0393222
-0.0423302
-0.0452084
-0.0479565
-0.0505749
-0.0530643
-0.055426
-0.0576617
-0.0597734
-0.0617636
-0.0636348
-0.0653901
-0.0670327
-0.0685659
-0.0699934
-0.0713186
-0.0725453
-0.073677
-0.0747173
-0.0756701
0.0196422
0.0150828
0.0105876
0.00616415
0.00181943
-0.00243973
-0.00660707
-0.0106766
-0.0146428
-0.0185008
-0.022246
-0.0258743
-0.0293824
-0.0327672
-0.0360265
-0.0391584
-0.0421616
-0.0450354
-0.0477796
-0.0503944
-0.0528806
-0.0552395
-0.0574726
-0.059582
-0.06157
-0.0634392
-0.0651927
-0.0668335
-0.0683649
-0.0697905
-0.0711138
-0.0723384
-0.0734678
-0.0745055
-0.0754553
0.0196763
0.0151279
0.0106435
0.00623061
0.00189613
-0.00235313
-0.00651096
-0.0105714
-0.0145291
-0.0183789
-0.0221165
-0.0257377
-0.0292392
-0.032618
-0.0358718
-0.0389986
-0.0419973
-0.044867
-0.0476075
-0.0502191
-0.0527024
-0.0550587
-0.0572895
-0.0593969
-0.0613831
-0.0632507
-0.0650026
-0.0666419
-0.0681719
-0.0695961
-0.0709177
-0.0721405
-0.073268
-0.0743035
-0.0752507
0.0197088
0.0151713
0.0106976
0.00629514
0.0019708
-0.00226869
-0.00641715
-0.0104687
-0.0144179
-0.0182598
-0.0219899
-0.0256043
-0.0290994
-0.0324724
-0.0357209
-0.038843
-0.0418374
-0.0447033
-0.0474404
-0.050049
-0.0525298
-0.0548838
-0.0571127
-0.0592184
-0.0612031
-0.0630694
-0.0648201
-0.0664583
-0.0679872
-0.0694102
-0.0707306
-0.071952
-0.0730778
-0.0741115
-0.0750565
0.0197396
0.0152129
0.0107498
0.0063577
0.00204338
-0.00218646
-0.00632569
-0.0103684
-0.0143094
-0.0181435
-0.0218664
-0.0254741
-0.0289631
-0.0323305
-0.035574
-0.0386916
-0.0416819
-0.0445443
-0.0472784
-0.0498843
-0.0523628
-0.054715
-0.0569423
-0.0590466
-0.0610301
-0.0628955
-0.0646454
-0.0662828
-0.0678109
-0.0692331
-0.0705526
-0.071773
-0.0728976
-0.0739297
-0.074873
0.0197686
0.0152527
0.0108001
0.00641824
0.00211383
-0.00210649
-0.00623662
-0.0102708
-0.0142036
-0.0180301
-0.021746
-0.0253472
-0.0288303
-0.0321924
-0.0354311
-0.0385444
-0.0415311
-0.0443903
-0.0471216
-0.0497252
-0.0522018
-0.0545523
-0.0567783
-0.0588817
-0.0608644
-0.0627292
-0.0644786
-0.0661156
-0.0676434
-0.0690651
-0.0703841
-0.0716038
-0.0727276
-0.0737586
-0.0747005
0.0197959
0.0152906
0.0108484
0.00647672
0.0021821
-0.00202883
-0.00615001
-0.0101757
-0.0141005
-0.0179197
-0.0216287
-0.0252237
-0.0287011
-0.0320581
-0.0352923
-0.0384017
-0.0413849
-0.0442412
-0.0469701
-0.0495717
-0.0520467
-0.054396
-0.0566211
-0.0587238
-0.0607062
-0.0625707
-0.06432
-0.065957
-0.0674847
-0.0689064
-0.0702253
-0.0714448
-0.072568
-0.0735984
-0.0745393
0.0198214
0.0153266
0.0108948
0.00653309
0.00224814
-0.00195352
-0.0060659
-0.0100833
-0.0140003
-0.0178123
-0.0215147
-0.0251036
-0.0285757
-0.0319278
-0.0351577
-0.0382635
-0.0412436
-0.0440972
-0.046824
-0.049424
-0.0518977
-0.0542462
-0.0564708
-0.0585732
-0.0605555
-0.0624202
-0.0641698
-0.0658071
-0.0673353
-0.0687573
-0.0700765
-0.071296
-0.0724193
-0.0734493
-0.0743897
0.019845
0.0153607
0.0109391
0.0065873
0.0023119
-0.00188063
-0.00598436
-0.00999357
-0.0139031
-0.017708
-0.021404
-0.0249871
-0.0284539
-0.0318016
-0.0350275
-0.0381298
-0.0411072
-0.0439585
-0.0466835
-0.0492822
-0.0517551
-0.054103
-0.0563274
-0.05843
-0.0604127
-0.0622779
-0.0640281
-0.0656663
-0.0671952
-0.068618
-0.0699378
-0.0711579
-0.0722815
-0.0733118
-0.0742519
0.0198667
0.0153928
0.0109813
0.00663931
0.00237334
-0.0018102
-0.00590541
-0.00990665
-0.0138087
-0.0176068
-0.0212966
-0.0248742
-0.0283361
-0.0316794
-0.0349016
-0.0380009
-0.0409757
-0.0438251
-0.0465487
-0.0491465
-0.0516188
-0.0539666
-0.0561913
-0.0582943
-0.0602778
-0.062144
-0.0638953
-0.0655346
-0.0670647
-0.0684887
-0.0698097
-0.0710307
-0.0721551
-0.0731859
-0.0741264
0.0198864
0.0154228
0.0110214
0.00668907
0.0024324
-0.00174229
-0.00582915
-0.00982257
-0.0137174
-0.0175089
-0.0211927
-0.0247649
-0.0282221
-0.0315614
-0.0347803
-0.0378768
-0.0408494
-0.0436972
-0.0464197
-0.0490169
-0.0514891
-0.0538372
-0.0560625
-0.0581664
-0.0601511
-0.0620186
-0.0637715
-0.0654124
-0.0669441
-0.0683697
-0.0696922
-0.0709147
-0.0720403
-0.0730722
-0.0740134
0.0199042
0.0154508
0.0110592
0.00673645
0.00248893
-0.00167707
-0.00575575
-0.00974156
-0.0136294
-0.0174145
-0.0210925
-0.0246597
-0.0281125
-0.031448
-0.0346637
-0.0377578
-0.0407286
-0.0435751
-0.0462969
-0.0488938
-0.0513663
-0.0537151
-0.0559413
-0.0580466
-0.0600329
-0.0619022
-0.063657
-0.0652999
-0.0668337
-0.0682614
-0.0695858
-0.0708102
-0.0719375
-0.0729708
-0.0739133
0.0199199
0.0154765
0.0110947
0.00678136
0.00254283
-0.00161465
-0.00568534
-0.00966373
-0.0135447
-0.0173237
-0.0209962
-0.0245585
-0.0280072
-0.0313392
-0.0345522
-0.0376441
-0.0406134
-0.0434591
-0.0461805
-0.0487776
-0.0512507
-0.0536005
-0.0558282
-0.0579353
-0.0599235
-0.061795
-0.0635522
-0.0651976
-0.0667339
-0.068164
-0.0694909
-0.0707176
-0.071847
-0.0728822
-0.0738264
0.0199336
0.0155003
0.0111282
0.00682434
0.00259483
-0.00155412
-0.00561683
-0.00958784
-0.0134621
-0.017235
-0.0209022
-0.0244598
-0.0279046
-0.0312334
-0.0344439
-0.037534
-0.0405022
-0.0433474
-0.0460689
-0.0486666
-0.0511408
-0.0534922
-0.0557219
-0.0578312
-0.059822
-0.0616963
-0.0634564
-0.0651048
-0.0666442
-0.0680774
-0.0694072
-0.0706367
-0.0717688
-0.0728064
-0.0737528
0.0199454
0.0155226
0.0111608
0.00686685
0.00264677
-0.00149329
-0.00554769
-0.00951105
-0.0133784
-0.017145
-0.0208068
-0.0243598
-0.0278008
-0.0311266
-0.0343349
-0.0374235
-0.0403909
-0.0432361
-0.0459582
-0.0485572
-0.0510332
-0.0533868
-0.0556191
-0.0577315
-0.0597256
-0.0616035
-0.0633673
-0.0650195
-0.0665627
-0.0679997
-0.0693333
-0.0705664
-0.0717019
-0.0727428
-0.073692
0.0199549
0.0155424
0.0111903
0.0069056
0.00269423
-0.0014377
-0.00548459
-0.00944109
-0.0133022
-0.0170634
-0.0207204
-0.0242693
-0.0277069
-0.0310301
-0.0342365
-0.0373239
-0.0402908
-0.043136
-0.0458588
-0.048459
-0.0509368
-0.0532928
-0.0555278
-0.0576432
-0.0596408
-0.0615223
-0.0632899
-0.0649461
-0.0664934
-0.0679344
-0.069272
-0.070509
-0.0716483
-0.0726928
-0.0736453
0.0199593
0.0155507
0.0112021
0.00692017
0.00271106
-0.00141906
-0.00546449
-0.00941977
-0.0132799
-0.0170401
-0.0206962
-0.0242442
-0.0276809
-0.0310031
-0.0342085
-0.037295
-0.040261
-0.0431054
-0.0458275
-0.0484271
-0.0509045
-0.0532601
-0.0554951
-0.0576106
-0.0596084
-0.0614904
-0.0632587
-0.0649157
-0.0664639
-0.067906
-0.0692448
-0.070483
-0.0716236
-0.0726693
-0.0736231
0.0899937
0.084927
0.0798107
0.07465
0.0694504
0.0642182
0.0589602
0.0536839
0.0483972
0.0431087
0.037827
0.0325616
0.0273218
0.0221176
0.0900717
0.0850008
0.07988
0.0747147
0.0695106
0.0642743
0.059013
0.0537344
0.0484466
0.0431583
0.0378786
0.032617
0.0273828
0.0221862
0.0899677
0.0849077
0.0797977
0.0746431
0.06945
0.0642251
0.0589755
0.0537092
0.0484342
0.0431596
0.0378941
0.0326475
0.0274291
0.0222491
0.089854
0.0848076
0.0797111
0.07457
0.0693903
0.0641787
0.0589426
0.0536898
0.0484285
0.0431676
0.037916
0.0326834
0.0274791
0.0223132
0.0897582
0.0847241
0.0796398
0.0745108
0.0693432
0.0641437
0.0589197
0.053679
0.04843
0.0431815
0.0379424
0.0327225
0.0275308
0.0223776
0.089666
0.0846438
0.0795712
0.0744537
0.0692977
0.0641098
0.0588975
0.0536687
0.0484317
0.0431953
0.0379685
0.032761
0.0275819
0.0224414
0.0895721
0.0845617
0.0795009
0.0743951
0.0692507
0.0640745
0.058874
0.0536571
0.0484321
0.0432079
0.0379935
0.0327986
0.0276322
0.0225045
0.0894771
0.0844786
0.0794295
0.0743354
0.0692027
0.0640383
0.0588496
0.0536446
0.0484318
0.0432199
0.0380179
0.0328355
0.0276818
0.022567
0.0893817
0.0843951
0.0793577
0.0742753
0.0691543
0.0640016
0.0588247
0.0536317
0.0484309
0.0432312
0.0380416
0.0328718
0.0277308
0.0226288
0.0892861
0.0843113
0.0792856
0.0742148
0.0691054
0.0639644
0.0587993
0.0536182
0.0484294
0.043242
0.0380648
0.0329075
0.0277792
0.02269
0.08919
0.084227
0.0792129
0.0741537
0.0690559
0.0639266
0.0587733
0.0536041
0.0484274
0.0432522
0.0380874
0.0329426
0.0278269
0.0227505
0.0890936
0.0841423
0.0791398
0.0740921
0.0690059
0.0638883
0.0587467
0.0535894
0.0484248
0.0432618
0.0381093
0.032977
0.027874
0.0228103
0.0889968
0.0840571
0.0790661
0.07403
0.0689554
0.0638494
0.0587196
0.0535741
0.0484215
0.0432707
0.0381306
0.0330108
0.0279204
0.0228694
0.0888997
0.0839715
0.078992
0.0739674
0.0689043
0.0638099
0.0586918
0.0535582
0.0484176
0.043279
0.0381512
0.0330439
0.027966
0.0229277
0.0888022
0.0838855
0.0789175
0.0739043
0.0688527
0.0637699
0.0586635
0.0535417
0.0484131
0.0432866
0.0381711
0.0330762
0.028011
0.0229853
0.0887043
0.0837991
0.0788424
0.0738407
0.0688005
0.0637292
0.0586345
0.0535246
0.048408
0.0432936
0.0381904
0.0331079
0.0280552
0.0230422
0.0886061
0.0837122
0.0787669
0.0737765
0.0687478
0.063688
0.0586049
0.0535068
0.0484021
0.0432998
0.0382089
0.0331388
0.0280986
0.0230982
0.0885075
0.0836249
0.0786909
0.0737118
0.0686945
0.0636462
0.0585747
0.0534884
0.0483956
0.0433054
0.0382267
0.033169
0.0281413
0.0231535
0.0884086
0.0835373
0.0786145
0.0736466
0.0686406
0.0636037
0.0585439
0.0534693
0.0483884
0.0433103
0.0382438
0.0331984
0.0281832
0.0232079
0.0883094
0.0834492
0.0785375
0.0735808
0.0685861
0.0635607
0.0585124
0.0534495
0.0483805
0.0433144
0.0382601
0.0332271
0.0282242
0.0232615
0.0882098
0.0833606
0.0784601
0.0735145
0.068531
0.063517
0.0584802
0.053429
0.0483719
0.0433178
0.0382756
0.0332549
0.0282645
0.0233142
0.0881099
0.0832717
0.0783821
0.0734477
0.0684754
0.0634727
0.0584474
0.0534078
0.0483625
0.0433204
0.0382904
0.0332819
0.0283039
0.023366
0.0880097
0.0831823
0.0783037
0.0733803
0.0684191
0.0634277
0.0584139
0.0533859
0.0483524
0.0433222
0.0383043
0.0333081
0.0283424
0.0234169
0.0879092
0.0830926
0.0782248
0.0733124
0.0683623
0.0633821
0.0583797
0.0533633
0.0483415
0.0433233
0.0383175
0.0333334
0.02838
0.0234669
0.0878083
0.0830024
0.0781454
0.0732438
0.0683048
0.0633358
0.0583447
0.0533399
0.0483299
0.0433235
0.0383297
0.0333579
0.0284167
0.0235159
0.087707
0.0829118
0.0780655
0.0731747
0.0682467
0.0632888
0.0583091
0.0533158
0.0483174
0.043323
0.0383412
0.0333814
0.0284525
0.023564
0.0876055
0.0828207
0.077985
0.0731051
0.0681879
0.0632412
0.0582727
0.0532909
0.0483042
0.0433215
0.0383517
0.033404
0.0284873
0.023611
0.0875036
0.0827293
0.0779041
0.0730348
0.0681286
0.0631928
0.0582356
0.0532652
0.0482901
0.0433192
0.0383614
0.0334257
0.0285212
0.0236571
0.0874014
0.0826373
0.0778226
0.072964
0.0680685
0.0631438
0.0581977
0.0532387
0.0482752
0.0433161
0.0383701
0.0334465
0.028554
0.0237021
0.0872989
0.082545
0.0777407
0.0728925
0.0680078
0.063094
0.0581591
0.0532114
0.0482594
0.043312
0.0383779
0.0334662
0.0285858
0.023746
0.087196
0.0824522
0.0776581
0.0728205
0.0679464
0.0630435
0.0581197
0.0531833
0.0482428
0.043307
0.0383847
0.033485
0.0286166
0.0237889
0.0870928
0.082359
0.0775751
0.0727478
0.0678843
0.0629922
0.0580794
0.0531543
0.0482252
0.0433011
0.0383905
0.0335027
0.0286463
0.0238306
0.0869892
0.0822653
0.0774914
0.0726744
0.0678215
0.0629401
0.0580383
0.0531244
0.0482068
0.0432942
0.0383954
0.0335194
0.0286749
0.0238711
0.0915434
0.0868853
0.0821711
0.0774072
0.0726004
0.0677579
0.0628873
0.0579964
0.0530936
0.0481873
0.0432863
0.0383992
0.033535
0.0287024
0.0239105
0.0914297
0.086781
0.0820765
0.0773225
0.0725258
0.0676937
0.0628336
0.0579536
0.053062
0.048167
0.0432774
0.038402
0.0335496
0.0287288
0.0239487
0.0913158
0.0866764
0.0819814
0.0772371
0.0724505
0.0676286
0.0627792
0.05791
0.0530293
0.0481456
0.0432675
0.0384036
0.033563
0.0287539
0.0239857
0.0912016
0.0865713
0.0818857
0.0771512
0.0723745
0.0675629
0.0627239
0.0578654
0.0529958
0.0481233
0.0432566
0.0384042
0.0335752
0.0287779
0.0240214
0.0910872
0.086466
0.0817896
0.0770646
0.0722978
0.0674963
0.0626677
0.05782
0.0529613
0.0480999
0.0432445
0.0384037
0.0335863
0.0288007
0.0240559
0.0909726
0.0863602
0.081693
0.0769775
0.0722204
0.0674289
0.0626107
0.0577736
0.0529257
0.0480755
0.0432314
0.038402
0.0335961
0.0288222
0.024089
0.0908577
0.086254
0.0815959
0.0768896
0.0721422
0.0673607
0.0625528
0.0577262
0.0528892
0.04805
0.0432172
0.0383992
0.0336048
0.0288424
0.0241208
0.0907426
0.0861474
0.0814982
0.0768012
0.0720633
0.0672917
0.062494
0.0576779
0.0528516
0.0480234
0.0432018
0.0383951
0.0336122
0.0288613
0.0241512
0.0906272
0.0860405
0.0813999
0.076712
0.0719836
0.0672218
0.0624342
0.0576286
0.052813
0.0479957
0.0431852
0.0383898
0.0336183
0.0288788
0.0241802
0.0905116
0.085933
0.0813011
0.0766222
0.0719032
0.0671511
0.0623735
0.0575782
0.0527732
0.0479668
0.0431674
0.0383832
0.033623
0.028895
0.0242077
0.0903956
0.0858252
0.0812017
0.0765317
0.0718219
0.0670794
0.0623118
0.0575268
0.0527324
0.0479368
0.0431484
0.0383754
0.0336265
0.0289097
0.0242338
0.0902794
0.0857169
0.0811018
0.0764405
0.0717398
0.0670068
0.0622491
0.0574743
0.0526904
0.0479056
0.0431281
0.0383662
0.0336285
0.028923
0.0242584
0.0901628
0.0856081
0.0810012
0.0763485
0.0716568
0.0669333
0.0621854
0.0574207
0.0526472
0.0478731
0.0431065
0.0383557
0.0336291
0.0289349
0.0242814
0.090046
0.0854988
0.0809
0.0762558
0.071573
0.0668588
0.0621206
0.057366
0.0526029
0.0478393
0.0430836
0.0383438
0.0336283
0.0289452
0.0243028
0.0899288
0.0853891
0.0807981
0.0761623
0.0714883
0.0667833
0.0620547
0.0573101
0.0525573
0.0478043
0.0430593
0.0383305
0.033626
0.028954
0.0243226
0.0898113
0.0852788
0.0806956
0.0760679
0.0714027
0.0667068
0.0619877
0.057253
0.0525104
0.0477679
0.0430337
0.0383157
0.0336222
0.0289612
0.0243408
0.0896935
0.085168
0.0805923
0.0759728
0.0713161
0.0666293
0.0619196
0.0571947
0.0524623
0.0477302
0.0430066
0.0382994
0.0336168
0.0289667
0.0243573
0.0895752
0.0850567
0.0804884
0.0758768
0.0712286
0.0665507
0.0618503
0.0571351
0.0524128
0.0476911
0.042978
0.0382816
0.0336099
0.0289706
0.024372
0.0894566
0.0849448
0.0803838
0.07578
0.07114
0.0664709
0.0617799
0.0570743
0.0523619
0.0476505
0.042948
0.0382622
0.0336013
0.0289728
0.024385
0.0893376
0.0848322
0.0802784
0.0756822
0.0710505
0.06639
0.0617081
0.0570121
0.0523097
0.0476085
0.0429164
0.0382412
0.033591
0.0289733
0.0243961
0.0892181
0.0847191
0.0801721
0.0755835
0.0709598
0.066308
0.0616351
0.0569486
0.052256
0.0475649
0.0428832
0.0382186
0.033579
0.028972
0.0244054
0.0890984
0.0846055
0.0800652
0.075484
0.0708682
0.0662248
0.0615609
0.0568838
0.0522009
0.0475199
0.0428485
0.0381943
0.0335653
0.0289688
0.0244127
0.0889788
0.0844917
0.079958
0.0753839
0.0707759
0.0661408
0.0614857
0.0568178
0.0521446
0.0474735
0.0428123
0.0381685
0.0335499
0.0289639
0.0244182
0.0888582
0.0843768
0.0798495
0.0752824
0.070682
0.0660551
0.0614087
0.05675
0.0520863
0.0474252
0.0427741
0.0381406
0.0335324
0.0289569
0.0244216
0.088731
0.0842553
0.0797345
0.0751745
0.070582
0.0659635
0.0613261
0.0566769
0.0520231
0.0473722
0.0427317
0.038109
0.0335117
0.028947
0.0244226
0.0885978
0.0841278
0.0796135
0.0750609
0.0704765
0.0658668
0.0612389
0.0565996
0.0519563
0.0473161
0.0426866
0.038075
0.0334888
0.0289352
0.0244216
0.0885143
0.0840478
0.0795375
0.0749898
0.0704108
0.0658071
0.0611857
0.0565533
0.051917
0.047284
0.0426616
0.0380568
0.0334771
0.0289294
0.0244213
)
;

boundaryField
{
    inlet
    {
        type            zeroGradient;
    }
    outlet
    {
        type            fixedValue;
        value           nonuniform 0();
    }
    cylinder
    {
        type            zeroGradient;
    }
    top
    {
        type            symmetryPlane;
    }
    bottom
    {
        type            symmetryPlane;
    }
    defaultFaces
    {
        type            empty;
    }
    procBoundary13to9
    {
        type            processor;
        value           nonuniform List<scalar> 
83
(
-0.0511275
-0.0474841
-0.0437165
-0.039826
-0.0358145
-0.0316843
-0.0274377
-0.023078
-0.0186083
-0.0186083
-0.0185691
-0.0139252
-0.00920128
-0.00440294
0.000463799
0.00539283
0.010378
0.0154128
0.0204903
0.0256037
0.030749
0.0359195
0.0411083
0.0525697
0.0525697
0.0579984
0.0634318
0.0688618
0.0742806
0.0796802
0.0850532
0.0903921
-0.0526829
-0.0523
-0.0523
-0.0551546
-0.0548637
-0.0548637
-0.057643
-0.0573476
-0.0573476
-0.0599461
-0.0596425
-0.0593412
-0.0593412
-0.0617674
-0.0614608
-0.0614608
-0.0637258
-0.063415
-0.063415
-0.0655236
-0.0655236
-0.0674861
-0.0671673
-0.0671673
-0.0689837
-0.0686636
-0.0686636
-0.0703403
-0.0700199
-0.0700199
-0.0715633
-0.0715633
-0.0729826
-0.0726608
-0.0726608
-0.0739594
-0.0739594
-0.075146
-0.0748254
-0.0748254
-0.0759031
-0.0759031
-0.0768812
-0.0768812
-0.07776
-0.077442
-0.077442
-0.0782319
-0.0782319
-0.0789293
-0.0789293
)
;
    }
    procBoundary13to12
    {
        type            processor;
        value           nonuniform List<scalar> 
61
(
0.0950066
0.0950881
0.094973
0.0948454
0.094737
0.0946327
0.0945267