/*--------------------------------*- C++ -*----------------------------------*\
  =========                 |
  \\      /  F ield         | OpenFOAM: The Open Source CFD Toolbox
   \\    /   O peration     | Website:  https://openfoam.org
    \\  /    A nd           | Version:  7
     \\/     M anipulation  |
\*---------------------------------------------------------------------------*/
FoamFile
{
    version     2.0;
    format      ascii;
    class       surfaceScalarField;
    location    "20";
    object      phi;
}
// * * * * * * * * * * * * * * * * * * * * * * * * * * * * * * * * * * * * * //

dimensions      [0 3 -1 0 0 0 0];

internalField   nonuniform List<scalar> 
11850
(
-3.78654e-05
3.78671e-05
-1.66763e-09
-0.000110545
7.26824e-05
-3.32588e-09
-0.000202163
9.16228e-05
-4.24236e-09
-0.000304342
0.000102184
-4.81595e-09
-0.000413739
0.000109402
-5.31494e-09
-0.000529191
0.000115458
-5.81488e-09
0.000121342
-6.29036e-09
-3.71862e-05
7.50533e-05
-0.00010863
0.000144126
-0.000198534
0.000181528
-0.000298455
0.000202105
-0.000404894
0.000215841
-0.000516487
0.000227051
0.000237674
-3.5868e-05
0.000110921
-0.000104886
0.000213144
-0.00019141
0.000268052
-0.000286869
0.000297564
-0.000387465
0.000316436
-0.000491442
0.000331028
0.000344151
-3.39698e-05
0.000144891
-9.94504e-05
0.000278624
-0.000181017
0.000349618
-0.000269917
0.000386464
-0.00036192
0.000408439
-0.000454715
0.000423822
0.000436189
-3.15761e-05
0.000176467
-9.25227e-05
0.000339571
-0.00016768
0.000424775
-0.000248068
0.000466852
-0.000328916
0.000489287
-0.000407209
0.000502115
0.000509549
-2.87929e-05
0.00020526
-8.43507e-05
0.000395129
-0.000151803
0.000492228
-0.000221902
0.000536951
-0.00028924
0.000556625
-0.000349976
0.000562851
-0.000400758
0.000560332
0.000549765
-2.57414e-05
0.000231002
-7.52186e-05
0.000444606
-0.000133848
0.000550857
-0.000192065
0.000595168
-0.000243744
0.000608304
-0.000284101
0.000603208
-0.000308667
0.000584898
0.000553767
-2.25518e-05
0.000253553
-6.54307e-05
0.000487485
-0.000114299
0.000599725
-0.000159222
0.000640091
-0.000193261
0.000642344
-0.000210559
0.000620507
-0.000205364
0.000579702
0.000519843
-1.9355e-05
0.000272908
-5.52917e-05
0.000523421
-9.36357e-05
0.000638069
-0.000123995
0.00067045
-0.000138505
0.000656853
-0.00013006
0.000612061
-9.1393e-05
0.000541036
0.000442985
-1.62751e-05
0.000289183
-4.50851e-05
0.000552231
-7.22864e-05
0.000665271
-8.6899e-05
0.000685063
-7.99583e-05
0.000649913
-4.28611e-05
0.000574964
3.34956e-05
0.000464679
0.000317304
-1.34202e-05
0.000302604
-3.50501e-05
0.000573861
-5.05854e-05
0.000680806
-4.82561e-05
0.000682734
-1.77422e-05
0.000619399
5.14224e-05
0.000505799
0.000170601
0.0003455
0.000135547
-1.08743e-05
0.000313478
-2.53563e-05
0.000588343
-2.87236e-05
0.000684173
-8.1132e-06
0.000662123
4.85306e-05
0.000562755
0.000154014
0.000400316
0.000322465
0.000177049
0.000569225
-0.000111213
-0.000470242
-8.68945e-06
0.000322167
-1.6079e-05
0.000595733
-6.69949e-06
0.000674794
3.3849e-05
0.000621575
0.000119873
0.000476731
0.000267117
0.000253072
0.000492894
-4.87279e-05
0.000815114
-0.000433434
-0.000905341
-6.87943e-06
0.000329047
-7.16914e-06
0.000596023
1.5746e-05
0.000651879
7.83995e-05
0.000558921
0.00019804
0.000357091
0.000393946
5.71658e-05
0.000686629
-0.000341411
0.00109528
-0.000842086
-0.00144392
-5.42068e-06
0.000334467
1.57097e-06
0.000589031
3.91265e-05
0.000614323
0.000126812
0.000471236
0.000285549
0.000198353
0.000538513
-0.000195798
0.000908469
-0.000711367
0.00141275
-0.00134637
-0.00208857
-4.22337e-06
0.000338691
1.02591e-05
0.000574548
6.42683e-05
0.000560314
0.00018088
0.000354625
0.00038556
-6.32716e-06
0.000705047
-0.000515284
0.00116167
-0.00116799
0.00176536
-0.00195005
0.00250732
-0.00283053
-0.00376575
-3.12542e-06
0.000341816
1.95869e-05
0.000551836
9.231e-05
0.000487591
0.000242849
0.000204086
0.00050155
-0.000265028
0.000896936
-0.000910671
0.00144574
-0.00171679
0.00214298
-0.00264729
0.00295912
-0.00364668
-0.00465313
-1.94006e-06
0.000343756
3.00671e-05
0.000519829
0.000124632
0.000393026
0.000315259
1.3459e-05
0.000636689
-0.000586458
0.00111518
-0.00138916
0.00175415
-0.00235576
0.00252649
-0.00341963
0.00338076
-0.00450095
0.00425679
-0.00552915
-0.00645599
-3.3101e-07
0.000344087
4.23786e-05
0.000477119
0.000162792
0.000272613
0.000400645
-0.000224395
0.000792923
-0.000978735
0.00135666
-0.00195291
0.00207325
-0.00307234
0.00289026
-0.00423664
0.00374051
-0.00535121
0.00456352
-0.00635216
-0.00721186
1.44941e-06
0.000342638
5.72413e-05
0.000421327
0.000208409
0.000121445
0.000501088
-0.000517074
0.000969803
-0.00144745
0.00161293
-0.00259604
0.00238352
-0.00384293
0.00320802
-0.00506113
0.0040157
-0.00615889
0.00475815
-0.00709461
0.00541464
-0.00786835
-0.00850682
4.09705e-06
0.000338541
7.55329e-05
0.000349892
0.000262855
-6.58765e-05
0.000617078
-0.000871298
0.00116241
-0.00199278
0.00186902
-0.00330265
0.00266184
-0.00463575
0.0034576
-0.00585689
0.00419533
-0.00689662
0.00484604
-0.00774532
0.00540802
-0.00843033
-0.0089947
7.48389e-06
0.000331057
9.77199e-05
0.000259656
0.000327514
-0.00029567
0.000748682
-0.00129247
0.00136444
-0.00260854
0.00211094
-0.00404914
0.00289336
-0.00541817
0.00363301
-0.00659654
0.00428769
-0.0075513
0.00484872
-0.00830635
0.0053289
-0.00891051
0.00574986
-0.00941566
-0.00986452
1.19847e-05
0.000319072
0.000124632
0.000147008
0.000402974
-0.000574012
0.000892417
-0.00178191
0.00156418
-0.00328031
0.00232216
-0.00480712
0.00306603
-0.00616204
0.00373326
-0.00726377
0.00430323
-0.00812127
0.00478396
-0.00878709
0.00519699
-0.00932354
0.00556594
-0.00978462
-0.0102092
1.77592e-05
0.000301313
0.000156822
7.94537e-06
0.000488916
-0.000906106
0.00104258
-0.00233557
0.00174944
-0.00398717
0.00249133
-0.005549
0.003177
-0.00684771
0.00376595
-0.00785272
0.00425697
-0.00861229
0.00466954
-0.00919965
0.00502891
-0.0096829
0.0053574
-0.0101131
0.00567124
-0.0105231
-0.0109317
2.49488e-05
0.000276364
0.000194675
-0.000161781
0.000583734
-0.00129516
0.00119147
-0.00294331
0.0019094
-0.00470511
0.00261275
-0.00625235
0.0032297
-0.00746466
0.00374203
-0.00836505
0.00416349
-0.00903374
0.0045199
-0.00955606
0.00483661
-0.00999962
0.00513287
-0.0104094
0.00542105
-0.0108113
0.00570797
-0.0112186
-0.0116369
3.36888e-05
0.000242676
0.000238309
-0.000366402
0.000684384
-0.00174124
0.00133066
-0.00358958
0.00203653
-0.00541098
0.00268602
-0.00690185
0.00323117
-0.00800981
0.00367297
-0.00880685
0.00403516
-0.00939593
0.00434586
-0.00986675
0.00462819
-0.0102819
0.00489768
-0.0106789
0.0051633
-0.0110769
0.00542957
-0.0114849
0.00569889
-0.0119062
-0.0123429
4.4128e-05
0.000198548
0.000287408
-0.000609682
0.000786568
-0.0022404
0.00145255
-0.00425556
0.00212721
-0.00608564
0.00271446
-0.0074891
0.00318986
-0.00848522
0.0035692
-0.00918619
0.0038818
-0.00970852
0.00415513
-0.0101401
0.00440894
-0.0105358
0.00465513
-0.010925
0.0048999
-0.0113217
0.00514619
-0.0117312
0.00539546
-0.0121555
0.00564814
-0.0125956
-0.0130498
5.64435e-05
0.000142104
0.000341075
-0.000894313
0.000885255
-0.00278458
0.00155157
-0.00492188
0.00218127
-0.00671533
0.00270343
-0.00801126
0.00311415
-0.00889595
0.00343949
-0.00951152
0.00371077
-0.00997981
0.00395303
-0.0103823
0.00418228
-0.010765
0.00440721
-0.01115
0.00463201
-0.0115465
0.00485854
-0.0119577
0.00508776
-0.0123847
0.00531999
-0.0128278
0.00555648
-0.0132863
-0.0137646
7.0827e-05
7.12771e-05
0.0003978
-0.00122129
0.000975406
-0.00336219
0.00162468
-0.00557115
0.00220095
-0.0072916
0.00265905
-0.00846936
0.00301159
-0.00924848
0.00329078
-0.00979072
0.00352744
-0.0102165
0.00374316
-0.0105981
0.00395036
-0.0109722
0.00415519
-0.0113548
0.00436041
-0.0117517
0.00456722
-0.0121645
0.00477624
-0.0125937
0.00498785
-0.0130394
0.00520293
-0.0135014
0.00542066
-0.0139823
0.00564554
-0.0144726
-0.0150108
8.74174e-05
-1.61403e-05
0.000455577
-0.00158945
0.00105271
-0.00395932
0.00167112
-0.00618956
0.00218987
-0.00781035
0.00258739
-0.00886689
0.00288854
-0.00954963
0.00312844
-0.0100306
0.00333561
-0.0104236
0.00352788
-0.0107903
0.00371458
-0.0111589
0.00389992
-0.0115402
0.0040857
-0.0119374
0.0042727
-0.0123515
0.0044614
-0.0127824
0.00465214
-0.0132302
0.00484562
-0.0136949
0.0050414
-0.0141781
0.00524285
-0.014674
-0.0152111
0.00544312
0.000106189
-0.000122329
0.000512118
-0.00199538
0.00111412
-0.00456132
0.00169184
-0.00676728
0.00215224
-0.00827075
0.00249395
-0.0092086
0.00275021
-0.00980589
0.00295645
-0.0102369
0.00313791
-0.0106051
0.0033088
-0.0109612
0.00347589
-0.011326
0.00364203
-0.0117063
0.00380837
-0.0121038
0.00397547
-0.0125186
0.00414369
-0.0129506
0.00431339
-0.0133999
0.00448508
-0.0138666
0.00465856
-0.0143516
0.00483642
-0.0148519
-0.0153875
0.0050129
0.000126852
-0.000249182
0.00056506
-0.00243358
0.00115803
-0.00515429
0.00168887
-0.00729812
0.00209234
-0.00867422
0.0023835
-0.00949976
0.00260068
-0.0100231
0.00277774
-0.0104139
0.00293618
-0.0107635
0.003087
-0.011112
0.00323497
-0.011474
0.00338201
-0.0118533
0.00352887
-0.0122506
0.00367596
-0.0126657
0.00382359
-0.0130983
0.00397209
-0.0135484
0.00412183
-0.0140163
0.0042728
-0.0145025
0.00442683
-0.0150059
-0.01554
0.00457933
0.000148825
-0.000398007
0.000612152
-0.00289691
0.00118416
-0.00572629
0.0016648
-0.00777876
0.00201418
-0.00902361
0.00226007
-0.00974565
0.00244313
-0.0102061
0.00259441
-0.0105652
0.0027317
-0.0109008
0.00286323
-0.0112436
0.00299235
-0.0116031
0.0031203
-0.0119813
0.00324763
-0.012378
0.00337463
-0.0127927
0.00350158
-0.0132252
0.00362876
-0.0136755
0.00375644
-0.014144
0.00388469
-0.0146308
0.00401482
-0.015136
-0.0156684
0.00414316
0.000171321
-0.000569328
0.000651444
-0.00337703
0.00119315
-0.00626799
0.00162243
-0.00820804
0.00192137
-0.00932255
0.00212691
-0.00995119
0.00227994
-0.0103592
0.002408
-0.0106933
0.00252536
-0.0110182
0.00263809
-0.0113563
0.00274847
-0.0117135
0.00285733
-0.0120901
0.00296507
-0.0124857
0.00307193
-0.0128996
0.00317814
-0.0133314
0.00328392
-0.0137813
0.00338946
-0.0142495
0.0034949
-0.0147362
0.00360105
-0.0152422
-0.0157724
0.00370509
0.000193474
-0.000762802
0.000681476
-0.00386504
0.00118624
-0.00677275
0.00156456
-0.00858636
0.00181702
-0.00957501
0.00198665
-0.0101208
0.00211292
-0.0104854
0.0022196
-0.0108
0.00231785
-0.0111164
0.00241205
-0.0114505
0.00250373
-0.0118052
0.00259349
-0.0121799
0.00268162
-0.0125738
0.0027683
-0.0129863
0.00285374
-0.0134169
0.00293809
-0.0138657
0.00302147
-0.0143329
0.00310402
-0.0148188
0.00318621
-0.0153244
-0.0158521
0.00326586
0.000214452
-0.000977254
0.000701391
-0.00435197
0.00116499
-0.00723635
0.00149381
-0.00891518
0.00170378
-0.00978499
0.00184135
-0.0102584
0.00194343
-0.0105875
0.00203002
-0.0108865
0.00210968
-0.0111961
0.00218549
-0.0115263
0.00225852
-0.0118782
0.00232917
-0.0122506
0.00239768
-0.0126423
0.00246419
-0.0130528
0.00252886
-0.0134815
0.00259179
-0.0139286
0.00265303
-0.0143941
0.0027127
-0.0148785
0.00277098
-0.0153827
-0.0159073
0.00282621
0.0002335
-0.00121075
0.000710939
-0.00482941
0.00113108
-0.00765649
0.00141258
-0.00919669
0.00158385
-0.00995626
0.00169263
-0.0103672
0.00177248
-0.0106674
0.00183989
-0.0109539
0.00190127
-0.0112575
0.00195879
-0.0115838
0.00201318
-0.0119326
0.00206475
-0.0123021
0.00211366
-0.0126912
0.00216004
-0.0130992
0.00220398
-0.0135255
0.00224553
-0.0139701
0.0022847
-0.0144333
0.00232156
-0.0149153
0.00235604
-0.0154171
-0.0159381
0.00238687
0.000249945
-0.0014607
0.000710384
-0.00528985
0.00108621
-0.00803231
0.00132301
-0.00943349
0.00145907
-0.0100923
0.00154173
-0.0104498
0.00160084
-0.0107265
0.00164968
-0.0110028
0.00169299
-0.0113008
0.00173229
-0.0116231
0.00176809
-0.0119684
0.0018006
-0.0123346
0.00182997
-0.0127206
0.00185628
-0.0131255
0.00187957
-0.0135488
0.00189983
-0.0139904
0.00191704
-0.0144505
0.00193119
-0.0149295
0.00194205
-0.015428
-0.0159447
0.00194859
0.000263198
-0.0017239
0.000700356
-0.00572701
0.00103202
-0.00836398
0.00122694
-0.00962841
0.00133091
-0.0101963
0.00138963
-0.0105086
0.00142909
-0.0107659
0.00145979
-0.0110335
0.00148518
-0.0113262
0.00150632
-0.0116443
0.00152357
-0.0119856
0.0015371
-0.0123482
0.00154701
-0.0127305
0.00155333
-0.0131318
0.00155608
-0.0135515
0.00155519
-0.0139895
0.00155058
-0.0144459
0.00154219
-0.0149211
0.00152967
-0.0154155
-0.0159271
0.0015121
0.000272777
-0.00199667
0.000681728
-0.00613596
0.000970042
-0.00865229
0.00112594
-0.00978431
0.00120058
-0.0102709
0.0012371
-0.0105451
0.00125771
-0.0107865
0.00127056
-0.0110463
0.00127814
-0.0113338
0.00128119
-0.0116473
0.00127997
-0.0119844
0.0012746
-0.0123428
0.00126515
-0.0127211
0.00125163
-0.0131183
0.00123398
-0.0135339
0.0012121
-0.0139676
0.00118587
-0.0144197
0.00115514
-0.0148904
0.00111951
-0.0153798
-0.0158857
0.00107812
0.000276781
-0.00227346
0.000652896
-0.00651208
0.00089862
-0.00889802
0.00101826
-0.00990395
0.00106607
-0.0103187
0.00108192
-0.0105609
0.00108443
-0.010789
0.0010798
-0.0110417
0.00106982
-0.0113238
0.001055
-0.0116325
0.00103556
-0.0119649
0.00101156
-0.0123188
0.000983038
-0.0126925
0.000949959
-0.0130852
0.000912237
-0.0134961
0.000869725
-0.0139251
0.000822271
-0.0143722
0.000769646
-0.0148377
0.000711265
-0.0153215
-0.0158211
0.000646687
0.000277968
-0.00255142
0.000619982
-0.00685409
0.000825107
-0.00910314
0.000911212
-0.00999006
0.000934133
-0.0103416
0.000930242
-0.010557
0.000914917
-0.0107737
0.000892828
-0.0110196
0.000865237
-0.0112962
0.000832514
-0.0115998
0.000794811
-0.0119272
0.000752166
-0.0122762
0.000704582
-0.012645
0.000651977
-0.0130326
0.000594224
-0.0134384
0.000531132
-0.013862
0.000462544
-0.0143036
0.000388318
-0.0147635
0.000307273
-0.0152404
-0.0157336
0.000219683
0.000274995
-0.00282642
0.000581521
-0.00716062
0.000747726
-0.00926935
0.000802676
-0.010045
0.000802405
-0.0103414
0.000779593
-0.0105342
0.00074676
-0.0107409
0.000707353
-0.0109802
0.000662267
-0.0112511
0.000611757
-0.0115493
0.000555942
-0.0118714
0.000494817
-0.012215
0.000428337
-0.0125785
0.000356411
-0.0129607
0.000278865
-0.0133608
0.000195431
-0.0137786
0.000105846
-0.014214
9.7081e-06
-0.0146674
-9.20122e-05
-0.0151387
-0.0156226
-0.000202978
0.000268067
-0.00309449
0.000538421
-0.00743097
0.000667476
-0.0093984
0.000693435
-0.010071
0.000671398
-0.0103193
0.000630314
-0.0104931
0.000580235
-0.0106908
0.000523649
-0.0109236
0.000461199
-0.0111887
0.00039304
-0.0114811
0.000319256
-0.0117976
0.000239862
-0.0121356
0.000154621
-0.0124932
6.35361e-05
-0.0128696
-3.35559e-05
-0.0132638
-0.000136879
-0.0136753
-0.000246797
-0.0141041
-0.000363337
-0.0145508
-0.000488106
-0.0150139
-0.0154901
-0.00062056
0.000257503
-0.00335199
0.000491535
-0.007665
0.000585251
-0.00949212
0.00058415
-0.0100699
0.000541518
-0.0102767
0.000482675
-0.0104343
0.000415563
-0.0106237
0.000341947
-0.01085
0.000262263
-0.011109
0.000176605
-0.0113955
8.49432e-05
-0.011706
-1.27709e-05
-0.0120379
-0.000116144
-0.0123899
-0.000225898
-0.0127598
-0.000342209
-0.0131474
-0.000465327
-0.0135522
-0.000595374
-0.0139741
-0.00073283
-0.0144134
-0.000878645
-0.0148681
-0.015336
-0.00103274
0.000243708
-0.0035957
0.000441654
-0.00786295
0.000501822
-0.00955228
0.000475367
-0.0100434
0.000413108
-0.0102144
0.000336921
-0.0103581
0.000252948
-0.0105397
0.000162466
-0.0107595
6.55523e-05
-0.0110121
-3.74216e-05
-0.0112925
-0.000146356
-0.011597
-0.000261603
-0.0119227
-0.00038347
-0.012268
-0.000511877
-0.0126314
-0.000647177
-0.0130121
-0.000789648
-0.0134097
-0.000939544
-0.0138242
-0.00109738
-0.0142555
-0.00126378
-0.0147017
-0.0151608
-0.00143902
0.000227132
-0.00382283
0.000389502
-0.00802532
0.000417852
-0.00958064
0.000367537
-0.0099931
0.000286452
-0.0101334
0.000193251
-0.0102649
9.24861e-05
-0.0104389
-1.50264e-05
-0.010652
-0.00012823
-0.0108989
-0.000248082
-0.0111726
-0.00037453
-0.0114706
-0.000507503
-0.0117897
-0.000647285
-0.0121282
-0.000794014
-0.0124847
-0.000947974
-0.0128582
-0.00110947
-0.0132482
-0.00127884
-0.0136548
-0.00145657
-0.0140778
-0.00164317
-0.0145151
-0.014965
-0.00183898
0.000208239
-0.00403107
0.000335734
-0.00815281
0.000333894
-0.0095788
0.000261032
-0.00992024
0.000161771
-0.0100341
5.16338e-05
-0.0101548
-6.53647e-05
-0.0103219
-0.000188771
-0.0105286
-0.000319051
-0.0107686
-0.000455858
-0.0110358
-0.000599407
-0.0113271
-0.000749795
-0.0116393
-0.00090723
-0.0119708
-0.00107195
-0.01232
-0.00124424
-0.0126859
-0.00142442
-0.013068
-0.00161286
-0.0134664
-0.00181005
-0.0138806
-0.0020164
-0.0143088
-0.0147491
-0.00223225
0.000187477
-0.00421854
0.000280941
-0.00824628
0.000250427
-0.00954828
0.000156159
-0.00982597
3.88956e-05
-0.00991684
-8.70823e-05
-0.0100288
-0.000220185
-0.0101888
-0.000360106
-0.0103887
-0.000506816
-0.0106219
-0.00066029
-0.0108824
-0.000820682
-0.0111667
-0.000988179
-0.0114718
-0.00116299
-0.011796
-0.00134539
-0.0121376
-0.00153567
-0.0124956
-0.00173415
-0.0128695
-0.00194127
-0.0132592
-0.00215748
-0.0136644
-0.00238313
-0.0140831
-0.0145138
-0.00261848
0.000165272
-0.00438382
0.000225645
-0.00830665
0.000167862
-0.0094905
5.30848e-05
-0.00971119
-8.07838e-05
-0.00978297
-0.000223071
-0.00988651
-0.000372302
-0.0100396
-0.000528357
-0.0102326
-0.000691256
-0.010459
-0.00086111
-0.0107125
-0.00103808
-0.0109897
-0.00122239
-0.0112875
-0.00141427
-0.0116041
-0.00161401
-0.0119378
-0.00182192
-0.0122877
-0.00203835
-0.0126531
-0.00226373
-0.0130339
-0.00249854
-0.0134296
-0.00274302
-0.0138386
-0.0142595
-0.00299736
0.000142026
-0.00452584
0.000170288
-0.00833491
8.65497e-05
-0.00940676
-4.76964e-05
-0.00957694
-0.000197935
-0.00963273
-0.00035632
-0.00972813
-0.000521396
-0.00987453
-0.000693302
-0.0100607
-0.000872137
-0.0102801
-0.00105809
-0.0105265
-0.00125134
-0.0107964
-0.00145215
-0.0110867
-0.00166079
-0.0113955
-0.00187754
-0.0117211
-0.00210272
-0.0120625
-0.00233669
-0.0124191
-0.00257992
-0.0127906
-0.0028329
-0.0131766
-0.00309577
-0.0135758
-0.0139866
-0.00336858
0.000118137
-0.00464398
0.000115299
-0.00833207
5.67276e-06
-0.00929713
-0.000145929
-0.00942534
-0.000312514
-0.00946614
-0.000486606
-0.00955403
-0.000667264
-0.00969387
-0.000854748
-0.00987324
-0.00104924
-0.0100856
-0.00125099
-0.0103248
-0.00146022
-0.0105872
-0.00167722
-0.0108697
-0.00190227
-0.0111704
-0.00213568
-0.0114877
-0.00237777
-0.0118204
-0.0026289
-0.012168
-0.00288957
-0.01253
-0.00316029
-0.0129059
-0.00344109
-0.013295
-0.0136959
-0.00373187
9.39555e-05
-0.00473793
6.13352e-05
-0.00829945
-7.09962e-05
-0.0091648
-0.000241765
-0.00925457
-0.000424294
-0.00928361
-0.000613779
-0.00936455
-0.000809734
-0.00949792
-0.00101251
-0.00967047
-0.00122236
-0.00987579
-0.00143959
-0.0101076
-0.00166448
-0.0103623
-0.00189733
-0.0106369
-0.00213845
-0.0109293
-0.00238817
-0.0112379
-0.00264679
-0.0115618
-0.00291468
-0.0119001
-0.00319238
-0.0122523
-0.00348041
-0.0126178
-0.00377871
-0.0129967
-0.0133876
-0.00408694
6.9724e-05
-0.00480766
1.01465e-05
-0.00823988
-0.000146486
-0.00900817
-0.000335044
-0.00906602
-0.000533139
-0.00908552
-0.000737698
-0.00915999
-0.000948643
-0.00928697
-0.0011664
-0.00945271
-0.00139129
-0.0096509
-0.00162368
-0.00987517
-0.00186389
-0.0101221
-0.00211224
-0.0103885
-0.00236908
-0.0106725
-0.00263473
-0.0109723
-0.00290951
-0.011287
-0.00319379
-0.0116158
-0.00348811
-0.011958
-0.00379303
-0.0123129
-0.00410835
-0.0126813
-0.0130625
-0.00443351
4.56036e-05
-0.00485326
-4.48474e-05
-0.00814943
-0.000220292
-0.00883273
-0.000425582
-0.00886073
-0.000638899
-0.0088722
-0.000858225
-0.00894067
-0.00108384
-0.00906136
-0.00131624
-0.00922031
-0.00155584
-0.0094113
-0.00180305
-0.00962797
-0.00205822
-0.00986694
-0.00232172
-0.010125
-0.0025939
-0.0104003
-0.00287511
-0.0106911
-0.00316567
-0.0109965
-0.00346595
-0.0113156
-0.00377651
-0.0116474
-0.00409793
-0.0119915
-0.0044298
-0.0123495
-0.012721
-0.00477128
2.23041e-05
-0.00487557
-9.69381e-05
-0.00803018
-0.000292029
-0.00863764
-0.000513294
-0.00863946
-0.000741458
-0.00864404
-0.000975227
-0.0087069
-0.00121516
-0.00882143
-0.00146187
-0.00897361
-0.00171582
-0.00915735
-0.00197747
-0.00936631
-0.00224724
-0.00959717
-0.00252552
-0.00984673
-0.00281267
-0.0101131
-0.00310905
-0.0103947
-0.003415
-0.0106905
-0.00373089
-0.0109997
-0.0040573
-0.011321
-0.00439484
-0.011654
-0.0047429
-0.0120014
-0.0123639
-0.00510001
1.6253e-06
-0.00487719
-0.000146629
-0.00788193
-0.000361492
-0.00842277
-0.000598127
-0.00840283
-0.000840714
-0.00840145
-0.00108858
-0.00845903
-0.00134247
-0.00856753
-0.00160311
-0.00871297
-0.00187104
-0.00888942
-0.00214677
-0.00909058
-0.00243075
-0.00931319
-0.00272341
-0.00955407
-0.00302514
-0.00981139
-0.00333631
-0.0100835
-0.00365724
-0.0103696
-0.00398835
-0.0106686
-0.00433018
-0.0109791
-0.00468336
-0.0113008
-0.00504729
-0.0116375
-0.0119916
-0.0054196
-2.60037e-05
-0.00485119
-0.000194869
-0.00771306
-0.00042844
-0.0081892
-0.00067998
-0.00815129
-0.000936574
-0.00814486
-0.00119815
-0.00819746
-0.00146563
-0.00830005
-0.00173981
-0.00843878
-0.00202133
-0.00860791
-0.00231073
-0.00880117
-0.00260853
-0.00901539
-0.00291518
-0.00924742
-0.00323108
-0.00949548
-0.00355663
-0.00975798
-0.00389218
-0.010034
-0.00423814
-0.0103226
-0.004595
-0.0106223
-0.00496323
-0.0109326
-0.0053426
-0.0112581
-0.0116038
-0.00573038
-5.04169e-05
-0.00480077
-0.00024148
-0.007522
-0.000492772
-0.00793791
-0.00075876
-0.0078853
-0.00102895
-0.00787467
-0.00130384
-0.00792257
-0.0015845
-0.00801939
-0.00187182
-0.00815146
-0.0021665
-0.00831323
-0.00246918
-0.00849849
-0.00278037
-0.0087042
-0.00310059
-0.00892721
-0.00343025
-0.00916582
-0.00376977
-0.00941846
-0.00411957
-0.00968424
-0.00448012
-0.00996205
-0.0048518
-0.0102506
-0.00523491
-0.0105495
-0.00562897
-0.0108641
-0.0112026
-0.00603016
-7.33564e-05
-0.00472741
-0.000286318
-0.00730904
-0.000554461
-0.00766977
-0.000834392
-0.00760537
-0.00111775
-0.00759131
-0.00140553
-0.00763478
-0.00169894
-0.00772598
-0.00199897
-0.00785143
-0.0023064
-0.0080058
-0.00262191
-0.00818299
-0.00294607
-0.00838003
-0.00327941
-0.00859386
-0.0036224
-0.00882284
-0.00397546
-0.00906539
-0.00433911
-0.00932059
-0.00471394
-0.00958723
-0.00510029
-0.00986424
-0.00549833
-0.0101514
-0.00590874
-0.0104536
-0.0107983
-0.00631302
-9.84089e-05
-0.00462901
-0.00033304
-0.00707441
-0.000617025
-0.00738578
-0.000910121
-0.00731227
-0.00120599
-0.00729544
-0.00150605
-0.00733473
-0.00181162
-0.00742041
-0.00212377
-0.00753927
-0.00244336
-0.00768621
-0.00277112
-0.00785523
-0.00310767
-0.00804348
-0.00345357
-0.00824797
-0.00380929
-0.00846711
-0.00417534
-0.00869935
-0.00455225
-0.00894368
-0.00494066
-0.00919882
-0.00534082
-0.00946409
-0.00575129
-0.00974095
-0.00616969
-0.0100352
-0.0103427
-0.00662532
-0.000119126
-0.00450988
-0.000373884
-0.00681965
-0.000673033
-0.00708663
-0.000979012
-0.00700629
-0.00128716
-0.0069873
-0.00159921
-0.00702268
-0.00191664
-0.00710297
-0.00224061
-0.0072153
-0.00257205
-0.00735477
-0.00291174
-0.00751554
-0.00326034
-0.00769488
-0.00361846
-0.00788985
-0.00398661
-0.00809896
-0.00436531
-0.00832064
-0.00475515
-0.00855384
-0.00515652
-0.00879745
-0.00556916
-0.00905144
-0.00599268
-0.00931743
-0.00643184
-0.00959608
-0.00987842
-0.00689609
-0.000138911
-0.00437097
-0.000412745
-0.00654582
-0.000726284
-0.00677309
-0.00104459
-0.00668798
-0.00136452
-0.00666737
-0.00168809
-0.00669912
-0.0020169
-0.00677416
-0.0023522
-0.00688001
-0.00269499
-0.00701198
-0.00304612
-0.00716441
-0.0034063
-0.0073347
-0.00377614
-0.00752001
-0.00415622
-0.00771888
-0.00454711
-0.00792975
-0.00494937
-0.00815159
-0.00536333
-0.00838349
-0.00578901
-0.00862576
-0.0062273
-0.00887914
-0.00668193
-0.00914145
-0.00940676
-0.0071536
-0.000157728
-0.00421324
-0.000449572
-0.00625397
-0.000776722
-0.00644594
-0.0011068
-0.0063579
-0.00143799
-0.00633617
-0.00177256
-0.00636455
-0.00211224
-0.00643448
-0.00245837
-0.00653388
-0.00281202
-0.00665833
-0.00317408
-0.00680234
-0.00354532
-0.00696346
-0.00392639
-0.00713894
-0.0043179
-0.00732738
-0.00472042
-0.00752723
-0.00513447
-0.00773754
-0.00556034
-0.00795761
-0.00599842
-0.00818768
-0.00645013
-0.00842743
-0.00691762
-0.00867396
-0.00892457
-0.00739981
-0.000175546
-0.00403769
-0.000484335
-0.00594519
-0.000824321
-0.00610596
-0.00116558
-0.00601665
-0.0015075
-0.00599425
-0.00185254
-0.00601951
-0.00220257
-0.00608445
-0.002559
-0.00617745
-0.00292299
-0.00629434
-0.00329547
-0.00642986
-0.00367725
-0.00658168
-0.00406902
-0.00674716
-0.00447143
-0.00692497
-0.00488507
-0.00711359
-0.00531044
-0.00731217
-0.00574793
-0.00752012
-0.00619813
-0.00773748
-0.00666224
-0.00796332
-0.00714128
-0.00819492
-0.00843123
-0.00763462
-0.000192335
-0.00384536
-0.000517009
-0.00562051
-0.000869056
-0.00575391
-0.00122089
-0.00566481
-0.00157299
-0.00564215
-0.00192795
-0.00566454
-0.00228779
-0.00572462
-0.00265398
-0.00581125
-0.00302776
-0.00592056
-0.00341012
-0.0060475
-0.0038019
-0.0061899
-0.00420383
-0.00634523
-0.00461658
-0.00651222
-0.00504074
-0.00668943
-0.00547684
-0.00687607
-0.00592535
-0.00707161
-0.00638697
-0.00727587
-0.00686262
-0.00748766
-0.00735287
-0.00770467
-0.00792653
-0.00785757
-0.000208068
-0.00363729
-0.000547571
-0.00528101
-0.000910905
-0.00539058
-0.00127271
-0.005303
-0.0016344
-0.00528047
-0.00199872
-0.00530022
-0.0023678
-0.00535554
-0.0027432
-0.00543585
-0.00312621
-0.00553754
-0.00351788
-0.00565583
-0.0039191
-0.00578869
-0.00433063
-0.00593371
-0.00475315
-0.00608969
-0.00518729
-0.00625529
-0.00563359
-0.00642978
-0.00609259
-0.00661262
-0.00656494
-0.00680351
-0.00705138
-0.00700123
-0.00755235
-0.00720369
-0.00741081
-0.00806808
-0.000222721
-0.00341457
-0.000576004
-0.00492773
-0.000949847
-0.00501673
-0.00132099
-0.00493186
-0.00169167
-0.00490979
-0.00206476
-0.00492713
-0.0024425
-0.0049778
-0.00282653
-0.00505182
-0.00321821
-0.00514586
-0.00361862
-0.00525542
-0.00402869
-0.00537861
-0.00444923
-0.00551317
-0.00488094
-0.00565798
-0.00532445
-0.00581177
-0.00578035
-0.00597388
-0.0062492
-0.00614377
-0.00673164
-0.00632108
-0.00722825
-0.00650461
-0.00773949
-0.00669246
-0.00688447
-0.00826582
-0.000236274
-0.0031783
-0.000602292
-0.00456171
-0.000985866
-0.00463316
-0.0013657
-0.00455203
-0.00174475
-0.00453074
-0.002126
-0.00454587
-0.00251181
-0.00459199
-0.00290388
-0.00465976
-0.00330363
-0.00474611
-0.00371218
-0.00484686
-0.00413052
-0.00496027
-0.00455947
-0.00508423
-0.00499976
-0.0052177
-0.00545204
-0.00535949
-0.00591692
-0.005509
-0.00639498
-0.00566571
-0.00688682
-0.00582924
-0.00739294
-0.00599848
-0.00791377
-0.00617163
-0.00634839
-0.00844985
-0.000248708
-0.00292959
-0.000626424
-0.00418399
-0.00101895
-0.00424063
-0.0014068
-0.00416418
-0.00179359
-0.00414395
-0.00218239
-0.00415707
-0.00257565
-0.00419872
-0.00297515
-0.00426026
-0.00338236
-0.0043389
-0.00379845
-0.00443077
-0.00422444
-0.00453429
-0.00466117
-0.0046475
-0.00510942
-0.00476945
-0.00556984
-0.00489906
-0.00604307
-0.00503577
-0.00652969
-0.00517909
-0.00703027
-0.00532866
-0.0075453
-0.00548345
-0.00807515
-0.00564179
-0.00580318
-0.00862036
-0.000260054
-0.00266953
-0.000648396
-0.00379565
-0.00104908
-0.00383995
-0.00144427
-0.00376899
-0.00183815
-0.00375008
-0.00223386
-0.00376137
-0.00263395
-0.00379863
-0.00304025
-0.00385396
-0.0034543
-0.00392485
-0.0038773
-0.00400777
-0.0043103
-0.00410128
-0.00475419
-0.00420361
-0.00520974
-0.0043139
-0.00567766
-0.00443114
-0.00615857
-0.00455486
-0.00665307
-0.00468459
-0.00716172
-0.00482002
-0.00768501
-0.00496015
-0.00822333
-0.00510347
-0.00524943
-0.00877708
-0.000270343
-0.00239919
-0.000668204
-0.00339779
-0.00107625
-0.00343191
-0.00147809
-0.00336715
-0.00187838
-0.00334978
-0.00228035
-0.0033594
-0.00268663
-0.00339235
-0.0030991
-0.00344149
-0.00351935
-0.00350461
-0.00394861
-0.0035785
-0.00438799
-0.00366191
-0.00483837
-0.00375323
-0.00530057
-0.00385169
-0.00577531
-0.00395641
-0.00626323
-0.00406694
-0.00676494
-0.00418289
-0.007281
-0.00430395
-0.00781197
-0.00442918
-0.00835825
-0.0045572
-0.00468819
-0.00891948
-0.000279544
-0.00211965
-0.000685842
-0.00299149
-0.00110044
-0.00301731
-0.00150822
-0.00295937
-0.00191426
-0.00294374
-0.00232182
-0.00295184
-0.00273363
-0.00298054
-0.00315162
-0.00302351
-0.00357741
-0.00307881
-0.00401229
-0.00314362
-0.00445737
-0.00321683
-0.00491357
-0.00329702
-0.00538174
-0.00338352
-0.00586261
-0.00347554
-0.00635684
-0.00357271
-0.00686505
-0.00367467
-0.00738785
-0.00378115
-0.00792577
-0.00389126
-0.0084791
-0.00400387
-0.00411953
-0.00904776
-0.000287634
-0.00183201
-0.000701303
-0.00257782
-0.00112165
-0.00259697
-0.00153465
-0.00254637
-0.00194573
-0.00253265
-0.00235821
-0.00253936
-0.00277489
-0.00256386
-0.00319773
-0.00260067
-0.00362841
-0.00264813
-0.00406823
-0.0027038
-0.00451833
-0.00276673
-0.00497968
-0.00283568
-0.00545311
-0.00291009
-0.00593939
-0.00298926
-0.00643921
-0.0030729
-0.0069532
-0.00316069
-0.00748198
-0.00325237
-0.00802606
-0.00334718
-0.00858569
-0.00344424
-0.00354401
-0.00916121
-0.000294597
-0.00153742
-0.00071458
-0.00215784
-0.00113985
-0.00217169
-0.00155735
-0.00212887
-0.00197278
-0.00211722
-0.0023895
-0.00212264
-0.00281037
-0.00214299
-0.00323739
-0.00217365
-0.00367227
-0.00221325
-0.00411635
-0.00225972
-0.00457079
-0.00231229
-0.00503657
-0.0023699
-0.00551455
-0.0024321
-0.00600552
-0.0024983
-0.00651016
-0.00256825
-0.00702916
-0.00264169
-0.00756314
-0.00271839
-0.00811258
-0.00279774
-0.0086778
-0.00287901
-0.00296255
-0.00925926
-0.000300424
-0.00123699
-0.000725668
-0.0017326
-0.00115506
-0.0017423
-0.00157631
-0.00170762
-0.00199538
-0.00169816
-0.00241564
-0.00170238
-0.00284001
-0.00171862
-0.00327053
-0.00174314
-0.00370893
-0.00177484
-0.00415658
-0.00181208
-0.00461465
-0.00185421
-0.00508414
-0.00190041
-0.00556594
-0.0019503
-0.00606084
-0.0020034
-0.00656956
-0.00205953
-0.00709277
-0.00211847
-0.00763112
-0.00218004
-0.0081851
-0.00224375
-0.00875508
-0.00230903
-0.00237611
-0.00934153
-0.000305105
-0.000931886
-0.00073456
-0.00130314
-0.00116725
-0.00130962
-0.00159151
-0.00128336
-0.00201349
-0.00127617
-0.0024366
-0.00127928
-0.00286378
-0.00129143
-0.00329711
-0.00130981
-0.00373834
-0.00133361
-0.00418884
-0.00136157
-0.00464984
-0.00139322
-0.00512231
-0.00142793
-0.00560719
-0.00146542