/*--------------------------------*- C++ -*----------------------------------*\
  =========                 |
  \\      /  F ield         | OpenFOAM: The Open Source CFD Toolbox
   \\    /   O peration     | Website:  https://openfoam.org
    \\  /    A nd           | Version:  7
     \\/     M anipulation  |
\*---------------------------------------------------------------------------*/
FoamFile
{
    version     2.0;
    format      ascii;
    class       volVectorField;
    location    "20";
    object      U;
}
// * * * * * * * * * * * * * * * * * * * * * * * * * * * * * * * * * * * * * //

dimensions      [0 1 -1 0 0 0 0];

internalField   nonuniform List<vector> 
6050
(
(-0.00685335 0.00261502 -3.81601e-20)
(-0.0291134 0.00451492 -4.62877e-20)
(-0.0593121 0.00501795 5.79801e-21)
(-0.086075 0.00496108 -1.50049e-20)
(-0.110552 0.00470036 7.32071e-20)
(-0.131972 0.0044076 2.31663e-20)
(-0.150971 0.00413693 -3.24121e-20)
(-0.00714231 0.00778962 1.95586e-21)
(-0.0293602 0.0134634 -2.91921e-20)
(-0.0591657 0.01497 -6.15032e-20)
(-0.0854028 0.0147995 4.99532e-20)
(-0.109233 0.0140163 3.20334e-20)
(-0.129896 0.0131338 4.9064e-21)
(-0.14801 0.0123147 9.37227e-20)
(-0.00771188 0.0128038 -1.08428e-20)
(-0.0298501 0.0221751 -4.17966e-20)
(-0.0588789 0.0246763 6.03169e-20)
(-0.0840723 0.0243926 4.68404e-20)
(-0.106618 0.0230837 -1.58496e-19)
(-0.125777 0.0215997 2.06319e-20)
(-0.142134 0.0202116 -1.57587e-19)
(-0.0085462 0.0175594 5.46241e-20)
(-0.0305759 0.0304997 2.2146e-19)
(-0.0584624 0.0339775 -7.27514e-20)
(-0.082109 0.0335797 -1.49372e-19)
(-0.102746 0.03174 -8.66795e-20)
(-0.119673 0.029636 1.20888e-19)
(-0.133427 0.0276475 1.51548e-19)
(-0.00962298 0.0219686 -1.48566e-19)
(-0.0315267 0.0382966 -4.32745e-20)
(-0.0579303 0.0427197 1.30413e-19)
(-0.079547 0.0422035 6.84207e-20)
(-0.0976718 0.0398257 3.36677e-19)
(-0.111657 0.0370787 -3.13024e-19)
(-0.121989 0.0344513 -1.75952e-19)
(-0.0109152 0.0259577 9.66964e-20)
(-0.0326877 0.0454381 7.90467e-21)
(-0.0572967 0.0507571 -2.42853e-19)
(-0.0764228 0.0501118 -1.20869e-19)
(-0.0914495 0.0471864 -3.97506e-19)
(-0.101803 0.0437714 -1.46064e-20)
(-0.107914 0.040464 -2.09468e-20)
(-0.109902 0.0374193 -3.47309e-20)
(-0.0123927 0.0294695 -2.47108e-19)
(-0.0340403 0.0518125 -4.44015e-19)
(-0.0565727 0.0579543 1.61465e-19)
(-0.0727678 0.0571595 -4.50875e-20)
(-0.0841245 0.0536742 3.57859e-19)
(-0.090162 0.0495665 3.45066e-19)
(-0.091253 0.045541 -1.18731e-19)
(-0.0874443 0.0417878 1.65135e-19)
(-0.0140247 0.0324652 1.83146e-19)
(-0.0355607 0.0573267 2.04445e-19)
(-0.0557604 0.0641887 1.42697e-19)
(-0.0685987 0.0632102 5.11186e-19)
(-0.0757142 0.0591496 -1.13738e-19)
(-0.076735 0.054328 1.72855e-19)
(-0.0719699 0.049556 2.25283e-19)
(-0.0613825 0.045063 -2.83932e-19)
(-0.0157811 0.0349248 -8.98398e-20)
(-0.037219 0.0619077 5.36793e-20)
(-0.0548477 0.0693529 -4.33844e-19)
(-0.0639048 0.0681395 -2.49875e-19)
(-0.0661877 0.0634849 -2.00434e-19)
(-0.0614404 0.0579353 -1.12209e-19)
(-0.0498934 0.0524061 -5.51207e-19)
(-0.0314065 0.0471734 9.98005e-20)
(-0.0176346 0.0368463 3.43108e-19)
(-0.0389775 0.0655034 3.98513e-19)
(-0.0537995 0.0733574 1.05434e-19)
(-0.058632 0.0718381 4.35296e-19)
(-0.0554391 0.0665685 1.21583e-19)
(-0.0440717 0.0602904 2.72762e-19)
(-0.0246546 0.054024 3.07611e-19)
(0.00308653 0.0481026 2.84249e-19)
(-0.0195617 0.0382449 -2.14953e-19)
(-0.0407879 0.0680834 -3.61951e-19)
(-0.0525487 0.0761331 6.34468e-19)
(-0.0526645 0.0742174 -6.5408e-19)
(-0.0432552 0.0683136 -4.69522e-19)
(-0.0242481 0.0613296 -2.01889e-19)
(0.00437971 0.0543953 -8.84186e-20)
(0.0430682 0.0479178 -4.86469e-19)
(-0.0215428 0.0391493 2.01227e-19)
(-0.0425873 0.0696377 1.60412e-19)
(-0.0509846 0.0776349 -7.37204e-19)
(-0.0458023 0.0752156 -2.49508e-19)
(-0.0292781 0.0686678 2.65271e-19)
(-0.0013608 0.0610417 -1.40613e-19)
(0.0381712 0.0535877 3.83438e-19)
(0.0899265 0.0468112 3.64758e-19)
(0.154379 0.0408973 -4.77119e-19)
(-0.0235617 0.0395991 -6.44901e-19)
(-0.0442933 0.0701757 -6.31509e-19)
(-0.0489406 0.0778448 4.72076e-19)
(-0.0377355 0.0748056 3.01078e-19)
(-0.0129647 0.0676292 1.61187e-19)
(0.02548 0.059493 -1.31824e-19)
(0.0780524 0.0517896 -2.38013e-19)
(0.14544 0.0451513 1.19723e-19)
(0.227839 0.0398567 1.49401e-20)
(-0.0256044 0.0396402 9.96642e-20)
(-0.0457975 0.0697223 6.63112e-19)
(-0.0461798 0.0767754 -2.09026e-19)
(-0.0280191 0.0730057 -2.70421e-20)
(0.00645261 0.0652656 -2.10407e-19)
(0.0574824 0.05686 -7.9403e-20)
(0.125712 0.0493565 7.12562e-20)
(0.211605 0.0435313 2.34036e-19)
(0.314452 0.0397238 6.52463e-20)
(-0.0276569 0.0393209 5.63254e-19)
(-0.0469583 0.068316 -1.64522e-19)
(-0.0423802 0.0744734 -4.23828e-19)
(-0.0160477 0.0698897 5.67197e-19)
(0.0299946 0.061737 5.03196e-19)
(0.096169 0.0534675 3.64435e-19)
(0.183066 0.0468548 3.35485e-19)
(0.290249 0.0427862 -1.15443e-19)
(0.415008 0.0415264 2.13571e-19)
(-0.0297014 0.0386866 -1.7775e-19)
(-0.0476004 0.0660157 9.88501e-20)
(-0.0371171 0.0710144 2.45532e-19)
(-0.0010361 0.0655973 -6.88167e-19)
(0.0589405 0.0573214 -1.17379e-19)
(0.143299 0.0498248 -5.88966e-19)
(0.251964 0.0450817 2.40261e-19)
(0.382368 0.0439339 -5.75778e-19)
(0.528332 0.0462677 2.2492e-19)
(0.680668 0.0511156 -5.30895e-19)
(-0.0317074 0.0377742 5.62506e-21)
(-0.0475062 0.0628878 4.39546e-19)
(-0.0298612 0.0665109 -1.16711e-19)
(0.0179893 0.0603503 -4.00743e-20)
(0.0947907 0.0524424 1.32887e-19)
(0.200676 0.0466498 4.59308e-19)
(0.333672 0.0450239 -2.26226e-19)
(0.487297 0.0479908 -2.04061e-19)
(0.650546 0.0545919 1.34764e-19)
(0.810366 0.0629077 2.99744e-19)
(-0.0336259 0.0366061 -4.75373e-20)
(-0.0464034 0.0590018 -4.26549e-20)
(-0.019976 0.0611224 4.96643e-19)
(0.0421751 0.0544625 2.58182e-19)
(0.139165 0.0476879 -2.35231e-19)
(0.269789 0.0448528 6.79964e-20)
(0.428181 0.0477125 7.51569e-20)
(0.602013 0.0556621 6.66755e-19)
(0.775136 0.0664499 -5.61691e-19)
(0.932414 0.0772296 -7.964e-19)
(1.06338 0.0857558 -7.83296e-19)
(-0.0353824 0.0351906 4.04937e-20)
(-0.0439689 0.0544403 -5.55677e-19)
(-0.00671488 0.055046 1.46888e-19)
(0.0728024 0.0483522 -4.97753e-19)
(0.193608 0.0438196 6.35914e-19)
(0.351304 0.0454498 -4.30923e-19)
(0.533545 0.0539592 1.75659e-20)
(0.721058 0.0670193 -3.61062e-20)
(0.894215 0.08099 -4.45246e-19)
(1.03909 0.0925887 1.09152e-18)
(1.14961 0.099944 4.60427e-19)
(-0.0368902 0.0335432 -2.92639e-19)
(-0.0398096 0.0492781 3.83641e-19)
(0.0107663 0.0485194 -3.38586e-19)
(0.111206 0.042562 -3.73808e-19)
(0.259266 0.0417538 -6.96597e-19)
(0.444464 0.0493722 2.7556e-19)
(0.645612 0.0640503 -1.91123e-19)
(0.83748 0.0813725 -5.55376e-19)
(1.00061 0.0968204 4.81924e-19)
(1.12579 0.107492 -3.88964e-19)
(1.213 0.112488 5.60139e-19)
(1.26805 0.112229 6.427e-19)
(-0.0380463 0.0316643 1.5238e-18)
(-0.0334755 0.0435841 -3.90027e-19)
(0.0333867 0.0418456 3.45664e-19)
(0.158631 0.0377858 4.24931e-19)
(0.336455 0.042471 6.56892e-19)
(0.546664 0.0571898 -3.49149e-19)
(0.758556 0.0775647 2.06063e-19)
(0.944552 0.0974741 -2.78989e-19)
(1.08969 0.112516 -5.14041e-19)
(1.19167 0.120923 2.65911e-19)
(1.25634 0.12302 -4.75132e-19)
(1.29289 0.120129 -3.00545e-19)
(-0.03872 0.0295448 -1.07036e-18)
(-0.0244764 0.0374574 4.66908e-19)
(0.0621177 0.035398 -4.94266e-20)
(0.216029 0.0348427 -2.43111e-19)
(0.424198 0.0467846 -7.31099e-19)
(0.653507 0.0688372 5.22009e-19)
(0.86613 0.0934556 -4.75076e-19)
(1.03737 0.113947 2.10452e-19)
(1.15995 0.127042 2.59604e-19)
(1.2387 0.132474 -1.10533e-18)
(1.2838 0.131668 2.12669e-19)
(1.30603 0.126522 3.80129e-20)
(1.31425 0.118819 4.6574e-19)
(-0.0387613 0.0271727 -7.81483e-20)
(-0.0122763 0.0310024 -7.02587e-19)
(0.0979363 0.0296288 3.89683e-19)
(0.283796 0.034604 2.59646e-19)
(0.520047 0.0550873 -2.12221e-19)
(0.759732 0.083615 -6.61063e-19)
(0.96332 0.110454 4.46463e-19)
(1.11378 0.129726 -1.1578e-19)
(1.21257 0.139912 8.43771e-20)
(1.27031 0.142196 6.92735e-19)
(1.29963 0.138791 -3.7115e-19)
(1.31141 0.131844 -3.43241e-19)
(1.3134 0.12302 -3.14988e-19)
(-0.037991 0.0245307 -3.30986e-20)
(0.003704 0.0243486 4.11282e-19)
(0.141713 0.0251313 -7.29557e-19)
(0.361383 0.0378674 1.46107e-19)
(0.620187 0.0672123 5.07748e-19)
(0.860263 0.100456 9.63594e-20)
(1.04704 0.127458 1.53728e-19)
(1.17385 0.144207 2.79166e-19)
(1.25004 0.151061 -3.15436e-19)
(1.29007 0.150368 -2.3462e-19)
(1.30734 0.144786 4.37467e-19)
(1.31182 0.136462 8.11919e-19)
(1.30982 0.126843 9.02132e-20)
(1.3049 0.116715 -3.20297e-19)
(-0.0362084 0.0216066 8.03489e-20)
(0.0240824 0.0176763 7.72215e-19)
(0.194062 0.0226482 -2.37341e-19)
(0.447089 0.0451121 6.5526e-19)
(0.720164 0.0824672 -5.39194e-19)
(0.951254 0.118257 6.40986e-19)
(1.11625 0.143712 -5.23844e-19)
(1.21914 0.157168 3.40966e-19)
(1.27531 0.16066 -2.22623e-19)
(1.30117 0.157333 2.3418e-20)
(1.30962 0.150002 -2.63117e-19)
(1.30918 0.140649 -4.59573e-19)
(1.30469 0.130464 -2.27484e-19)
(1.29861 0.120051 1.58477e-19)
(1.29199 0.109791 5.38276e-20)
(-0.0331929 0.0183996 -7.27437e-19)
(0.0495012 0.0112543 -6.96515e-19)
(0.25513 0.0230056 5.44987e-19)
(0.538122 0.056318 -3.30922e-20)
(0.815808 0.0998904 7.68904e-19)
(1.0305 0.136134 -4.66073e-19)
(1.17142 0.158824 2.03745e-19)
(1.25189 0.16865 -2.64588e-19)
(1.29121 0.168984 4.98249e-19)
(1.30616 0.163424 -1.99012e-19)
(1.30837 0.154719 1.95545e-19)
(1.30471 0.144595 -1.32958e-20)
(1.2987 0.133988 1.54202e-19)
(1.29194 0.123347 -2.03444e-20)
(1.28503 0.11291 2.37541e-19)
(1.2782 0.10265 4.89228e-20)
(-0.0287023 0.0149235 1.04507e-18)
(0.0805883 0.00549023 -6.7528e-19)
(0.324371 0.0269431 1.73307e-19)
(0.631036 0.0709863 -6.85768e-19)
(0.903931 0.118544 -4.8403e-19)
(1.09729 0.153506 5.30289e-20)
(1.21397 0.172666 9.55184e-20)
(1.27447 0.178827 -2.68272e-19)
(1.30014 0.176327 4.88651e-20)
(1.30697 0.168921 3.82163e-19)
(1.30488 0.159142 -2.82234e-19)
(1.29915 0.148422 -1.69627e-19)
(1.29223 0.137477 -9.36435e-20)
(1.28506 0.126625 -8.45914e-20)
(1.27798 0.116027 -1.08876e-19)
(1.27107 0.105668 2.0546e-19)
(1.26426 0.0959071 -1.00692e-19)
(-0.0224667 0.0112142 -2.48412e-19)
(0.117879 0.000973919 6.27045e-19)
(0.400434 0.0348945 3.76498e-19)
(0.722373 0.0883487 -4.28917e-19)
(0.982571 0.137687 5.32641e-19)
(1.15198 0.170057 -3.14819e-21)
(1.24565 0.185281 4.81867e-19)
(1.28908 0.187932 3.15051e-19)
(1.30403 0.182958 2.80037e-19)
(1.30497 0.174043 -2.70357e-19)
(1.29998 0.16341 1.89423e-19)
(1.29295 0.152206 2.00466e-19)
(1.28546 0.14096 3.36769e-19)
(1.27805 0.129898 -1.78468e-19)
(1.27086 0.119122 -2.52256e-22)
(1.2639 0.108662 -1.72664e-19)
(1.25711 0.0986824 6.66612e-21)
(1.25064 0.0886588 -7.74314e-20)
(-0.0141821 0.00734038 -2.26573e-19)
(0.161694 -0.00152637 -2.53414e-19)
(0.481253 0.0468528 -1.30041e-20)
(0.809214 0.107613 4.06587e-19)
(1.05087 0.156809 -3.983e-19)
(1.19555 0.185659 -4.3585e-19)
(1.26833 0.1968 1.6684e-19)
(1.29759 0.196203 -1.97425e-19)
(1.30434 0.189107 -1.25834e-19)
(1.3011 0.178951 4.92856e-20)
(1.2942 0.167614 -4.28855e-19)
(1.28633 0.155986 3.96067e-19)
(1.27849 0.144451 -3.84552e-20)
(1.27092 0.133165 -8.86353e-20)
(1.26366 0.122203 8.01004e-20)
(1.25668 0.111589 -1.22527e-19)
(1.24993 0.101431 -1.09764e-19)
(1.24348 0.0913716 -6.53407e-21)
(1.23695 0.0828194 -8.18913e-20)
(1.23208 0.0719565 1.55602e-19)
(-0.00351046 0.00342179 2.61043e-19)
(0.212004 -0.00115374 4.60313e-19)
(0.564338 0.0624202 -6.24249e-19)
(0.889465 0.128117 -2.33059e-19)
(1.10877 0.175594 -1.0602e-19)
(1.22932 0.200307 6.1054e-19)
(1.28372 0.207397 -1.63244e-19)
(1.30153 0.203859 -1.01907e-19)
(1.30214 0.19495 -1.41792e-19)
(1.29599 0.183756 1.70814e-19)
(1.28783 0.171809 6.34976e-20)
(1.27944 0.159783 -7.43264e-20)
(1.27136 0.147952 -1.99985e-19)
(1.2637 0.136425 2.05451e-20)
(1.2564 0.125254 -8.71098e-20)
(1.24942 0.114471 1.56713e-19)
(1.24271 0.104107 3.87172e-20)
(1.23631 0.0939984 4.09582e-20)
(1.22996 0.085088 5.59976e-20)
(1.22494 0.0743172 -1.63633e-19)
(0.00990616 -0.000350093 -4.91262e-19)
(0.268328 0.00286647 -2.8717e-20)
(0.647141 0.0809931 -9.54403e-20)
(0.961862 0.149366 2.75456e-19)
(1.15678 0.193867 -9.56769e-20)
(1.25465 0.214065 -2.68302e-19)
(1.29332 0.217254 -3.77895e-19)
(1.30207 0.211089 2.65838e-19)
(1.29818 0.200622 -3.12779e-19)
(1.29004 0.188529 1.55754e-19)
(1.28105 0.176023 9.19121e-20)
(1.27232 0.163602 -4.84396e-20)
(1.2641 0.151459 1.14653e-19)
(1.25637 0.139671 1.29302e-19)
(1.24905 0.128275 -2.76227e-19)
(1.24209 0.117291 2.0853e-19)
(1.23544 0.106729 1.85787e-20)
(1.2291 0.0965201 3.63744e-20)
(1.22292 0.0872551 1.76566e-19)
(1.21778 0.0765776 4.4417e-20)
(0.0264055 -0.00369062 1.46036e-19)
(0.329724 0.0110441 -5.97781e-19)
(0.72738 0.101948 5.65391e-19)
(1.02582 0.171018 2.58922e-19)
(1.19569 0.211548 -1.93855e-19)
(1.27288 0.227037 -3.20615e-19)
(1.29837 0.226545 1.10705e-20)
(1.30011 0.218041 -6.34139e-20)
(1.29298 0.206214 5.37992e-19)
(1.28349 0.193311 -2.46042e-19)
(1.27396 0.180266 -2.83935e-20)
(1.26501 0.167439 6.53627e-20)
(1.25669 0.154964 -4.07471e-20)
(1.24892 0.142895 -8.40343e-20)
(1.24162 0.131254 2.37764e-19)
(1.23469 0.120053 -1.96519e-19)
(1.22811 0.109283 2.42589e-20)
(1.22185 0.0989437 -1.12222e-19)
(1.21581 0.0893407 -1.1943e-19)
(1.21061 0.0787228 -3.89805e-20)
(0.0462512 -0.00621653 -1.05438e-19)
(0.394871 0.0235227 2.50007e-19)
(0.803229 0.124738 -2.28831e-19)
(1.08126 0.192835 -2.38271e-19)
(1.22644 0.228617 3.97237e-19)
(1.28522 0.239341 4.22908e-19)
(1.2999 0.23542 2.05058e-19)
(1.2963 0.224829 -3.48806e-21)
(1.28687 0.211785 -5.2864e-19)
(1.27647 0.198121 4.47698e-20)
(1.26659 0.184537 1.69228e-20)
(1.2575 0.171286 1.14839e-19)
(1.24914 0.158458 1.88946e-19)
(1.24137 0.146087 -9.98724e-21)
(1.23409 0.134185 -4.35746e-20)
(1.22722 0.122749 1.76468e-19)
(1.22072 0.11177 -1.15996e-19)
(1.21455 0.101268 1.43584e-19)
(1.20865 0.091339 -1.29294e-20)
(1.20341 0.0807711 1.49139e-19)
(0.0695809 -0.00746522 1.83538e-19)
(0.462229 0.0401073 9.79898e-20)
(0.873377 0.148915 -2.24756e-19)
(1.12839 0.214643 -2.797e-19)
(1.24999 0.245091 -1.99596e-20)
(1.29272 0.251094 -4.64886e-20)
(1.29867 0.244002 2.29108e-19)
(1.29108 0.231531 1.60138e-19)
(1.28006 0.217367 1.72764e-19)
(1.26906 0.202963 -6.28687e-20)
(1.25897 0.188826 8.31068e-20)
(1.24981 0.175129 -7.67292e-20)
(1.24143 0.161927 -1.56667e-19)
(1.23368 0.149237 1.90916e-20)
(1.22645 0.137058 4.10228e-20)
(1.21966 0.125377 4.91945e-20)
(1.21325 0.114181 6.5947e-20)
(1.20719 0.103491 -3.99366e-20)
(1.20142 0.0932605 7.75287e-20)
(1.19619 0.0827239 -1.7998e-19)
(0.0963653 -0.00694159 2.42513e-19)
(0.530199 0.060385 -2.2164e-20)
(0.937001 0.174119 3.15766e-19)
(1.16766 0.236309 1.936e-19)
(1.26728 0.26101 8.70688e-20)
(1.29624 0.262405 -2.14264e-19)
(1.2953 0.252385 -2.03925e-19)
(1.28479 0.238197 -5.681e-20)
(1.27268 0.222971 -1.53409e-20)
(1.26131 0.207828 -1.49591e-20)
(1.2511 0.193119 -2.00487e-19)
(1.24191 0.178953 4.41304e-20)
(1.23356 0.165359 7.99419e-20)
(1.22587 0.152333 2.32031e-21)
(1.21871 0.139864 9.72118e-21)
(1.21201 0.127928 -2.50575e-20)
(1.20571 0.116512 -6.10744e-20)
(1.19976 0.105615 -5.09686e-20)
(1.19414 0.0951038 -1.07128e-19)
(1.18894 0.084587 1.66574e-20)
(0.126395 -0.00418492 -1.48952e-19)
(0.597252 0.0838562 9.40325e-20)
(0.993682 0.200058 -3.90453e-20)
(1.19958 0.257723 9.2454e-21)
(1.27915 0.276416 -3.58221e-19)
(1.29652 0.273365 8.90689e-20)
(1.29022 0.260635 5.74625e-20)
(1.27763 0.244851 -3.96958e-20)
(1.2648 0.228594 1.42598e-19)
(1.25322 0.212699 -2.19826e-21)
(1.24297 0.197396 6.27407e-20)
(1.23381 0.182741 7.36153e-20)
(1.22552 0.168736 -5.0655e-20)
(1.21791 0.155362 -6.00316e-20)
(1.21086 0.142594 -3.25839e-20)
(1.20428 0.130397 -3.52444e-20)
(1.1981 0.118755 3.10368e-20)
(1.19227 0.107637 3.60552e-20)
(1.18679 0.0968728 5.83466e-20)
(1.18165 0.0863629 6.77485e-20)
(0.159291 0.0011651 -6.95206e-20)
(0.662022 0.110021 -1.38073e-20)
(1.0433 0.2265 -1.27351e-19)
(1.22477 0.278797 1.188e-19)
(1.28638 0.291352 2.57177e-19)
(1.29414 0.284046 1.40872e-19)
(1.28376 0.268794 -6.36726e-20)
(1.26972 0.251498 -3.70809e-20)
(1.25647 0.234219 -8.44146e-20)
(1.2448 0.217556 8.14095e-20)
(1.23458 0.201635 -3.22753e-21)
(1.22549 0.186472 -4.05265e-20)
(1.2173 0.172043 -4.78328e-20)
(1.20981 0.15831 -4.60232e-20)
(1.20289 0.145235 9.59799e-20)
(1.19644 0.132774 -3.26034e-20)
(1.19041 0.120903 -3.55344e-20)
(1.18472 0.109558 -6.12442e-21)
(1.17938 0.0985662 -6.41377e-21)
(1.17432 0.0880521 -3.75803e-20)
(0.194538 0.00932473 -6.92226e-21)
(0.723351 0.13841 -9.32251e-20)
(1.08595 0.253251 4.35353e-20)
(1.24383 0.299458 -1.56005e-19)
(1.28959 0.305856 -1.09399e-19)
(1.28955 0.294499 1.6298e-20)
(1.27614 0.276879 -1.71207e-21)
(1.26116 0.258126 7.3351e-21)
(1.24769 0.239823 2.28621e-20)
(1.23605 0.22237 4.05419e-20)
(1.22591 0.205813 -5.52803e-20)
(1.21696 0.190126 2.35455e-20)
(1.2089 0.175261 4.12639e-20)
(1.20157 0.161162 -8.9916e-21)
(1.1948 0.147776 -4.03328e-20)
(1.18852 0.13505 2.28112e-20)
(1.18263 0.122948 2.6138e-20)
(1.17711 0.111373 2.66512e-20)
(1.17192 0.100183 -1.36922e-20)
(1.16693 0.0896543 5.02948e-21)
(0.231522 0.0203575 7.7199e-20)
(0.780314 0.168588 -1.08707e-19)
(1.12184 0.280139 -1.49386e-20)
(1.25734 0.31965 6.3789e-20)
(1.28937 0.31995 1.03266e-19)
(1.2831 0.304752 -3.16986e-20)
(1.26753 0.284888 -9.06777e-20)
(1.25199 0.264711 8.99983e-20)
(1.23848 0.245374 -2.43287e-20)
(1.22695 0.227113 -2.80278e-20)
(1.21697 0.209902 2.55464e-20)
(1.20819 0.19368 -1.27143e-20)
(1.20032 0.178372 -3.78837e-21)
(1.19317 0.163902 1.00374e-20)
(1.1866 0.150203 1.44601e-20)
(1.18049 0.137214 1.85892e-20)
(1.17479 0.12488 -3.33634e-20)
(1.16943 0.113081 -8.38568e-21)
(1.1644 0.10172 -2.08881e-21)
(1.15951 0.0911664 1.02496e-20)
(0.269535 0.0341975 -4.23738e-20)
(0.832205 0.200148 7.55751e-20)
(1.15126 0.307005 -9.46262e-21)
(1.26588 0.339323 -2.05198e-20)
(1.28618 0.333648 -6.71995e-20)
(1.27506 0.314813 3.15376e-20)
(1.25803 0.292803 2.07415e-20)
(1.24224 0.271222 -2.29522e-20)
(1.22884 0.250838 -3.74898e-21)
(1.2175 0.231751 1.09454e-20)
(1.20775 0.213875 -1.186e-20)
(1.19919 0.19711 5.9779e-21)
(1.19156 0.181355 -1.30211e-20)
(1.18463 0.166513 7.48315e-21)
(1.17828 0.152504 1.55369e-21)
(1.17238 0.139255 -6.89943e-21)
(1.16687 0.126693 3.98653e-21)
(1.1617 0.114677 -6.25138e-21)
(1.15683 0.10317 2.04655e-21)
(1.15205 0.0925843 7.36952e-21)
(0.307778 0.0506818 -3.0453e-20)
(0.878534 0.232701 6.62267e-20)
(1.17454 0.333685 -6.98778e-21)
(1.26995 0.358434 -2.63408e-20)
(1.2804 0.346952 -6.17158e-20)
(1.26562 0.324673 3.09984e-20)
(1.24771 0.300596 2.01327e-20)
(1.23192 0.277619 -1.80296e-20)
(1.21875 0.256176 -2.11565e-22)
(1.2077 0.236252 8.48174e-21)
(1.19823 0.217702 -7.48816e-21)
(1.18996 0.200391 -2.05853e-21)
(1.1826 0.184188 -4.49431e-21)
(1.17594 0.168977 2.69009e-21)
(1.16984 0.154663 1.75357e-21)
(1.16418 0.14116 -6.93013e-21)
(1.15888 0.128375 7.77374e-21)
(1.15393 0.116157 -7.5049e-21)
(1.14922 0.104526 -1.84596e-21)
(1.14455 0.093901 4.75952e-21)
(0.345463 0.0695533 8.81635e-20)
(0.918923 0.265838 -8.93455e-20)
(1.19193 0.359992 -6.45666e-20)
(1.26998 0.376937 8.41492e-20)
(1.27233 0.359855 9.5819e-20)
(1.25493 0.334315 -3.90273e-20)
(1.23661 0.308232 -6.44782e-20)
(1.22104 0.283863 7.04021e-20)
(1.20822 0.261353 -1.95917e-20)
(1.19753 0.240585 -2.28616e-20)
(1.18843 0.221357 1.78765e-20)
(1.1805 0.203501 -3.43604e-21)
(1.17346 0.186854 -8.30606e-21)
(1.16711 0.171278 2.62513e-21)
(1.16129 0.156667 1.28864e-20)
(1.15589 0.142919 1.51948e-20)
(1.15084 0.129918 -1.90912e-20)
(1.14611 0.117512 -5.00234e-21)
(1.14159 0.105782 -3.31485e-21)
(1.13702 0.095112 7.08315e-21)
(0.382032 0.0905815 3.9293e-20)
(0.953435 0.29929 -1.41961e-19)
(1.20391 0.385817 3.99048e-20)
(1.26642 0.3948 -1.04218e-19)
(1.26225 0.372326 -1.21363e-19)
(1.2431 0.343687 1.96719e-20)
(1.22476 0.315648 7.84482e-21)
(1.20959 0.289894 -7.97596e-21)
(1.19724 0.266314 2.60534e-20)
(1.18701 0.244702 -9.70865e-22)
(1.17833 0.224802 -1.68144e-20)
(1.17081 0.206408 3.43232e-21)
(1.16415 0.189324 3.29268e-20)
(1.15814 0.173393 -2.87419e-21)
(1.15264 0.158496 -1.13006e-20)
(1.14752 0.144515 -6.65835e-21)
(1.14273 0.131307 2.87488e-20)
(1.13825 0.118725 1.24332e-20)
(1.13395 0.106933 -7.27418e-21)
(1.12947 0.096218 -8.77164e-21)
(0.416843 0.113517 -8.72199e-20)
(0.982038 0.332768 -1.69577e-20)
(1.2108 0.410998 -1.2427e-19)
(1.25962 0.411963 1.39426e-19)
(1.25036 0.384328 1.72968e-19)
(1.2302 0.352741 6.69436e-20)
(1.21218 0.322793 -1.20008e-20)
(1.19758 0.295665 1.35622e-20)
(1.18581 0.271019 -7.00138e-20)
(1.17612 0.24857 4.99425e-20)
(1.16795 0.228006 -1.50081e-20)
(1.16089 0.209084 -1.15359e-20)
(1.15466 0.191578 -3.15067e-20)
(1.14904 0.175303 -9.5517e-21)
(1.14389 0.160135 1.47491e-20)
(1.13909 0.145936 -9.77116e-21)
(1.13459 0.132534 -1.27947e-20)
(1.13039 0.119787 3.65636e-21)
(1.12628 0.10797 -2.1861e-21)
(1.12193 0.097216 -1.95845e-20)
(0.449301 0.138092 -1.28981e-19)
(1.0048 0.365996 2.4843e-20)
(1.21293 0.435386 6.00803e-20)
(1.24989 0.428371 -6.59299e-20)
(1.23683 0.395811 -2.36704e-19)
(1.2163 0.361414 1.93532e-20)
(1.19889 0.329602 8.47115e-20)
(1.18501 0.301118 -3.14083e-20)
(1.17394 0.27542 6.68843e-20)
(1.16489 0.252146 -1.80828e-20)
(1.1573 0.230935 4.40726e-20)
(1.15076 0.211499 5.99581e-21)
(1.14501 0.193588 9.90806e-22)
(1.13981 0.176989 -2.55526e-20)
(1.13505 0.161565 -1.23815e-20)
(1.1306 0.147162 -5.45382e-21)
(1.12643 0.133581 5.42345e-21)
(1.12251 0.120706 8.7521e-21)
(1.11858 0.108879 1.57991e-20)
(1.11441 0.0980798 2.72862e-20)
(0.478892 0.164018 1.64484e-19)
(1.02186 0.398712 6.1372e-20)
(1.21064 0.458834 2.03746e-19)
(1.23749 0.443953 9.89737e-20)
(1.22179 0.406713 7.79506e-20)
(1.20144 0.36964 -1.00301e-19)
(1.18489 0.336011 -8.85911e-20)
(1.17189 0.306195 -2.97045e-20)
(1.16164 0.279468 -1.65494e-20)
(1.15331 0.255391 -3.56112e-20)
(1.14638 0.233557 -5.35437e-20)
(1.14042 0.213626 -1.16015e-21)
(1.1352 0.195328 2.49284e-20)
(1.13048 0.178432 4.80691e-20)
(1.12613 0.162772 -4.71935e-20)
(1.12206 0.148181 1.05349e-20)
(1.11824 0.134439 -1.32657e-20)
(1.11462 0.121464 -5.48373e-21)
(1.11091 0.109647 -2.99621e-20)
(1.10693 0.098805 -6.61171e-21)
(0.505183 0.190987 3.61509e-19)
(1.03339 0.430666 -3.41651e-20)
(1.20425 0.481197 -1.59651e-19)
(1.22267 0.458635 -2.17756e-19)
(1.20536 0.416964 -4.63485e-20)
(1.18566 0.377343 1.81237e-22)
(1.17021 0.341952 1.19164e-19)
(1.15824 0.310835 9.39172e-20)
(1.14894 0.283115 6.14686e-20)
(1.14142 0.258265 -2.50647e-20)
(1.13521 0.235834 1.9741e-20)
(1.1299 0.215441 -1.72897e-20)
(1.12525 0.196779 -3.12201e-20)
(1.12104 0.179607 1.18143e-20)
(1.11715 0.163734 -3.48533e-21)
(1.11349 0.148975 1.06535e-20)
(1.11005 0.135096 1.5057e-20)
(1.10675 0.12205 -3.07406e-21)
(1.10326 0.11026 1.91118e-20)
(1.0995 0.0993787 -1.34252e-20)
(0.527829 0.218668 -2.27692e-19)
(1.03957 0.461611 2.72752e-19)
(1.19404 0.502331 -1.19916e-19)
(1.20563 0.472335 -5.63117e-20)
(1.18762 0.426483 1.76175e-19)
(1.169 0.384445 1.67737e-19)
(1.15488 0.347357 5.52238e-20)
(1.1441 0.314982 -4.32062e-20)
(1.13583 0.286308 -8.83582e-20)
(1.12921 0.260736 -1.36427e-21)
(1.1238 0.237736 1.05335e-20)
(1.11919 0.21691 2.18986e-20)
(1.11517 0.197916 2.01161e-20)
(1.11152 0.180494 -6.56939e-21)
(1.10812 0.164434 1.34563e-20)
(1.1049 0.149531 3.53034e-21)
(1.10186 0.13554 -6.69861e-21)
(1.0989 0.12245 1.02772e-20)
(1.09566 0.110705 9.05502e-21)
(1.09214 0.0997932 5.97529e-21)
(0.546568 0.246711 3.66909e-20)
(1.04063 0.491301 -4.85333e-19)
(1.18031 0.522098 3.00312e-19)
(1.18655 0.484965 1.83296e-19)
(1.16866 0.43518 -1.8537e-20)
(1.15155 0.390864 -1.44775e-19)
(1.13894 0.352154 -1.37003e-20)
(1.12948 0.318586 -3.02417e-20)
(1.12233 0.289005 8.91432e-20)
(1.11671 0.262751 -5.86222e-21)
(1.11216 0.239229 -1.41091e-20)
(1.10833 0.218008 3.44546e-21)
(1.10497 0.198715 -4.77567e-21)
(1.10192 0.181073 -2.29614e-21)
(1.09906 0.164854 1.1691e-20)
(1.09631 0.149834 -1.843e-20)
(1.09369 0.135758 2.95748e-21)
(1.09108 0.122652 -4.7832e-21)
(1.08812 0.110967 -3.00521e-21)
(1.08487 0.100038 7.1032e-22)
(0.561227 0.274753 -4.57615e-19)
(1.03681 0.51949 4.69872e-20)
(1.16332 0.540355 -1.02093e-19)
(1.1656 0.496434 1.29546e-19)
(1.1486 0.442969 -2.49479e-20)
(1.13331 0.396509 -9.81622e-20)
(1.1224 0.356281 -9.57317e-20)
(1.11438 0.321586 1.75441e-20)
(1.10848 0.29116 -1.98467e-20)
(1.10393 0.264277 1.69614e-20)
(1.10033 0.24028 1.91284e-20)
(1.09732 0.218705 -1.32078e-20)
(1.09469 0.199152 -1.66681e-21)
(1.09228 0.181325 6.48037e-21)
(1.08998 0.164978 -8.31233e-21)
(1.08773 0.149868 2.25887e-21)
(1.08555 0.135738 1.0969e-21)
(1.08332 0.122641 -3.52964e-21)
(1.08065 0.111033 -1.80944e-21)
(1.07771 0.100103 -6.4472e-21)
(0.571713 0.302426 2.07775e-19)
(1.02835 0.545937 4.3901e-19)
(1.14331 0.556942 -4.27621e-19)
(1.14299 0.506646 2.36021e-20)
(1.12755 0.449768 -9.73227e-20)
(1.11433 0.401302 1.88323e-19)
(1.10529 0.359663 -5.0223e-20)
(1.09885 0.323926 -6.93136e-21)
(1.09431 0.292727 -1.31085e-20)
(1.09092 0.265275 1.14305e-20)
(1.08832 0.240857 -4.46828e-21)
(1.08619 0.218976 2.20685e-21)
(1.08433 0.199205 4.20363e-21)
(1.0826 0.181229 -6.70991e-21)
(1.0809 0.164787 5.75386e-21)
(1.07918 0.14962 -1.27254e-20)
(1.07747 0.135467 6.2224e-22)
(1.07563 0.122406 -4.71855e-21)
(1.07328 0.110889 -5.86986e-21)
(1.07067 0.0999809 8.93658e-21)
(0.578013 0.329366 -1.61402e-19)
(1.01553 0.570427 -1.5524e-19)
(1.12047 0.571682 7.01082e-20)
(1.11891 0.515496 1.29092e-20)
(1.10553 0.455489 -1.01241e-20)
(1.09464 0.405168 -1.23279e-19)
(1.08766 0.362233 4.27372e-20)
(1.08293 0.325553 -2.87325e-20)
(1.07984 0.293661 7.92887e-21)
(1.07769 0.26571 -9.43615e-21)
(1.07617 0.240931 7.71408e-21)
(1.07497 0.218796 -1.40557e-20)
(1.07393 0.198852 8.08393e-21)
(1.07291 0.180768 7.27021e-21)
(1.07184 0.164267 -3.75428e-21)
(1.07068 0.149077 -3.95467e-21)
(1.06946 0.134935 7.72864e-21)
(1.06803 0.121933 8.93958e-21)
(1.06602 0.110524 1.47334e-20)
(1.06378 0.0996643 8.22239e-21)
(0.58019 0.355212 -3.74691e-19)
(0.998724 0.592788 5.45721e-19)
(1.09509 0.584442 1.77606e-19)
(1.09341 0.522821 -1.2216e-19)
(1.08263 0.460046 8.85192e-20)
(1.07432 0.408031 2.3187e-20)
(1.06956 0.363929 2.04092e-20)
(1.06666 0.326415 -7.49386e-21)
(1.06512 0.293921 -2.88582e-21)
(1.06429 0.265547 -1.32218e-21)
(1.0639 0.240472 -1.06895e-20)
(1.06368 0.21814 -9.74758e-21)
(1.0635 0.198074 -5.30431e-20)
(1.06323 0.179924 2.02265e-20)
(1.06282 0.163401 9.26462e-21)
(1.06225 0.148224 1.62815e-20)
(1.06154 0.134127 -2.04563e-20)
(1.06054 0.12121 1.39138e-21)
(1.05889 0.109924 1.74202e-20)
(1.05706 0.0991497 5.09309e-20)
(0.578379 0.379594 8.41521e-19)
(0.978224 0.612817 -4.31293e-19)
(1.0674 0.595128 5.1955e-20)
(1.06663 0.528483 -1.43491e-19)
(1.05895 0.463323 -4.01299e-20)
(1.05345 0.409817 -3.98602e-21)
(1.05106 0.36469 -6.79237e-21)
(1.05009 0.326463 1.00514e-21)
(1.05019 0.293468 1.06003e-21)
(1.05074 0.264754 -7.06824e-20)
(1.05155 0.239455 3.95164e-20)
(1.05235 0.216987 8.68084e-21)
(1.05307 0.19685 2.41475e-20)
(1.05358 0.178681 -3.36329e-20)
(1.05386 0.162176 4.01679e-20)
(1.05391 0.147051 1.41309e-20)
(1.05373 0.133034 -2.00944e-20)
(1.05317 0.120222 -3.45569e-21)
(1.05192 0.109072 -6.23122e-20)
(1.05052 0.098433 -2.89671e-20)
(0.572788 0.402187 -4.056e-19)
(0.954075 0.630154 -4.28971e-19)
(1.0378 0.603709 1.29985e-19)
(1.03877 0.532408 7.82767e-20)
(1.03458 0.465228 4.59474e-20)
(1.03209 0.410455 1.62397e-20)
(1.0322 0.364462 -3.5606e-20)
(1.03327 0.325654 6.26161e-20)
(1.0351 0.292266 -1.01657e-19)
(1.0371 0.263302 3.03864e-20)
(1.03914 0.237855 -3.86533e-20)
(1.04102 0.215317 1.39516e-20)
(1.04266 0.195165 -7.17781e-20)
(1.04399 0.177024 2.82411e-20)
(1.04499 0.160579 -5.92228e-20)
(1.04567 0.145545 2.57236e-20)
(1.04604 0.131644 1.21883e-20)
(1.04594 0.118951 3.57242e-20)
(1.0451 0.107943 5.49032e-20)
(1.04417 0.0975022 -7.45304e-21)
(0.563667 0.422827 1.36209e-19)
(0.926386 0.644426 4.27011e-19)
(1.00657 0.610033 -1.05354e-19)
(1.01 0.534569 8.10017e-20)
(1.00963 0.465682 -6.33446e-21)
(1.01033 0.40988 -6.11758e-20)
(1.01306 0.363195 9.21621e-20)
(1.01627 0.323947 -6.94162e-20)
(1.01989 0.290283 1.06375e-20)
(1.02339 0.261166 1.98661e-20)
(1.02673 0.235652 -5.71884e-22)
(1.02971 0.213111 1.29156e-19)
(1.03232 0.193004 6.56519e-20)
(1.03449 0.174941 -3.23752e-20)
(1.03623 0.1586 3.66417e-20)
(1.03756 0.1437 -2.59937e-20)
(1.03849 0.129954 -9.24803e-22)
(1.03886 0.117391 -1.34238e-19)
(1.03847 0.106508 -5.96576e-20)
(1.03802 0.0963295 -4.72719e-20)
(0.551237 0.441384 2.89982e-20)
(0.895619 0.655521 1.22423e-19)
(0.973899 0.61385 -8.29219e-20)
(0.980474 0.534888 -1.12457e-20)
(0.984213 0.464618 -6.19678e-20)
(0.988252 0.408033 -2.99951e-20)
(0.993724 0.360844 -5.83281e-20)
(0.999151 0.321307 -3.23724e-20)
(1.00462 0.287489 -3.10932e-20)
(1.00968 0.258322 6.93792e-20)
(1.01434 0.232826 -6.40481e-20)
(1.01846 0.210355 -1.98765e-19)
(1.02205 0.190353 -4.6502e-20)
(1.02509 0.17242 -2.18777e-20)
(1.02761 0.156229 6.78814e-20)
(1.0296 0.141508 -1.18433e-20)
(1.03109 0.127961 1.38726e-20)
(1.03195 0.115545 -2.48596e-20)
(1.03206 0.104768 9.00914e-20)
(1.03213 0.0949067 -5.65507e-20)
(0.535483 0.457479 6.3717e-20)
(0.862539 0.663594 -2.35322e-19)
(0.940059 0.615015 3.55658e-20)
(0.950353 0.533283 -4.93822e-20)
(0.958448 0.461977 2.9471e-20)
(0.965953 0.404863 1.77003e-19)
(0.974255 0.357371 -1.48744e-19)
(0.981968 0.317703 -3.61314e-20)
(0.989345 0.283862 1.10598e-20)
(0.995998 0.25475 -2.44663e-19)
(1.00202 0.229362 4.31636e-20)
(1.0073 0.207036 1.56492e-19)
(1.01191 0.187201 1.52261e-19)
(1.01583 0.169451 3.7796e-20)
(1.01913 0.153456 -5.62583e-20)
(1.0218 0.138958 -2.21007e-20)
(1.02385 0.125655 6.58064e-20)
(1.02526 0.113416 7.27476e-21)
(1.026 0.102754 1.05459e-20)
(1.02668 0.0933397 9.62419e-20)
(0.516485 0.470515 -2.95942e-19)
(0.827523 0.668462 8.53446e-20)
(0.905262 0.613531 2.55922e-20)
(0.919802 0.529679 7.66511e-21)
(0.932455 0.457707 1.33434e-19)
(0.943532 0.400327 -8.08151e-20)
(0.95474 0.352742 1.06439e-19)
(0.964794 0.31311 -6.92576e-20)
(0.974122 0.279382 -1.1462e-19)
(0.982402 0.250437 3.73897e-19)
(0.989808 0.225248 9.14069e-21)
(0.996274 0.203143 -2.20013e-20)
(1.00191 0.183542 -6.84423e-20)
(1.00674 0.166028 -5.85254e-21)
(1.01083 0.150275 -4.61363e-21)
(1.01417 0.136037 4.24848e-20)
(1.0168 0.123008 -3.60868e-20)
(1.01884 0.110959 -3.30526e-20)
(1.02045 0.100418 6.70894e-21)