/*--------------------------------*- C++ -*----------------------------------*\
  =========                 |
  \\      /  F ield         | OpenFOAM: The Open Source CFD Toolbox
   \\    /   O peration     | Website:  https://openfoam.org
    \\  /    A nd           | Version:  7
     \\/     M anipulation  |
\*---------------------------------------------------------------------------*/
FoamFile
{
    version     2.0;
    format      ascii;
    class       surfaceScalarField;
    location    "15";
    object      phi;
}
// * * * * * * * * * * * * * * * * * * * * * * * * * * * * * * * * * * * * * //

dimensions      [0 3 -1 0 0 0 0];

internalField   nonuniform List<scalar> 
5136
(
0.00114682
-4.78836e-09
-3.67436e-09
0.026091
0.00577305
0.0256085
0.00588768
0.0251031
0.00599809
0.0245746
0.0061028
0.00564866
0.0224316
0.0240585
0.00616473
0.00571664
0.0219215
0.0235312
0.00624389
0.00577614
0.0213925
0.022988
0.00631935
0.00582651
0.0208449
0.0224274
0.00638711
0.00530126
0.018488
0.00586722
0.0202789
0.0218489
0.00644573
0.00531381
0.0179206
0.00589771
0.019695
0.0212524
0.00649427
0.00531603
0.0173387
0.00591739
0.0190937
0.0206379
0.00653183
0.00530752
0.0167434
0.00592568
0.0184755
0.020006
0.0065576
0.0052879
0.0161358
0.00592206
0.0178413
0.0193572
0.00657082
0.0052569
0.0155171
0.00590601
0.0171922
0.0186924
0.0065708
0.00458623
0.0134234
0.00521433
0.014889
0.00587714
0.0165294
0.0180127
0.0065569
0.00452422
0.0128231
0.0051601
0.0142531
0.00583511
0.0158544
0.0173192
0.00652858
0.00445242
0.0122197
0.00509423
0.0136113
0.00577972
0.0151689
0.0166135
0.0064854
0.00437112
0.0116153
0.00501688
0.0129656
0.00571089
0.0144749
0.0158974
0.00642703
0.00428069
0.0110117
0.00492832
0.0123179
0.00562867
0.0137746
0.0151727
0.00635334
0.00418163
0.010411
0.00482896
0.0116706
0.00553331
0.0130702
0.0144417
0.00626432
0.00407454
0.00981533
0.00471936
0.0110258
0.00542518
0.0123644
0.0137067
0.0061602
0.00337135
0.0081265
0.00396011
0.00922657
0.0046002
0.0103857
0.00530487
0.0116597
0.0129702
0.0060414
0.00325926
0.00760577
0.00383913
0.00864671
0.0044723
0.00975251
0.00517312
0.0109589
0.0122347
0.00590856
0.00314336
0.00709681
0.00371249
0.00807759
0.00433661
0.00912839
0.00503086
0.0102647
0.011503
0.00576256
0.00302448
0.00660091
0.00358115
0.00752092
0.0041942
0.00851534
0.0048792
0.00957966
0.0107777
0.00560453
0.00290351
0.00611921
0.00344617
0.00697826
0.00404626
0.00791524
0.00471942
0.00890651
0.0100613
0.00543579
0.00278137
0.00565267
0.00330863
0.006451
0.00389406
0.00732981
0.00455295
0.00824762
0.00935635
0.00525791
0.00265901
0.00520208
0.0031697
0.00594031
0.00373896
0.00676054
0.00438137
0.00760522
0.00866507
0.00507265
0.00253738
0.00476803
0.00303057
0.00544713
0.00358239
0.00620872
0.00420637
0.00698124
0.00798949
0.00488195
0.00241747
0.00435087
0.00289246
0.00497214
0.00342583
0.00567535
0.00402975
0.00637732
0.00733133
0.00468791
0.00230023
0.00395079
0.00275659
0.00451578
0.00327078
0.00516116
0.00385338
0.00579472
0.00669196
0.00449275
0.00218664
0.00356771
0.0026242
0.00407822
0.00311878
0.00466658
0.00367918
0.00523433
0.00607238
0.00429876
0.00207762
0.00320137
0.00249649
0.00365934
0.00297135
0.00419172
0.00350909
0.00469659
0.00547319
0.00410828
0.00197408
0.00285127
0.00237465
0.00325877
0.00282999
0.00373638
0.00334504
0.00418154
0.00489456
0.00392367
0.00187689
0.00251671
0.00225982
0.00287584
0.00269615
0.00330005
0.00318892
0.00368878
0.00433625
0.00374723
0.00146695
0.00190278
0.00178687
0.00219678
0.00215307
0.00250964
0.00257124
0.00288188
0.00304255
0.00321747
0.0037976
0.0035812
0.00139841
0.00163734
0.0017048
0.0018904
0.00205542
0.00215901
0.00245656
0.00248074
0.00290766
0.00276638
0.00327756
0.0034277
0.00133724
0.00138259
0.00163136
0.00159628
0.00196781
0.00182256
0.00235335
0.0020952
0.00278585
0.00233388
0.00277469
0.00328872
0.00128389
0.00113726
0.00156718
0.00131299
0.00189107
0.00149868
0.0022627
0.00172357
0.00267858
0.00191801
0.00228722
0.00316605
0.0012388
0.000899941
0.00151283
0.00103895
0.00182594
0.00118557
0.0021856
0.00136391
0.00258713
0.00151647
0.00181307
0.00306128
0.00120229
0.000669147
0.00146878
0.000772472
0.00177306
0.00088128
0.00212288
0.00101409
0.00251261
0.00112674
0.0013499
0.00297578
0.00117467
0.000443313
0.00143539
0.000511745
0.00173295
0.000583727
0.00207523
0.000671809
0.00245592
0.000746051
0.000895158
0.00291066
0.00115613
0.000220819
0.00141297
0.000254898
0.00170598
0.000290719
0.00204317
0.000334619
0.00241774
0.000371479
0.000446131
0.00286677
0.00114682
0.00140172
0.00169243
0.00202705
0.00239854
0.00284468
-0.00538546
0.00251842
-0.00546227
0.00248857
0.00238328
-0.00543905
-0.005538
0.00245901
0.00235508
-0.00551268
-0.00561265
0.00242973
0.00225458
-0.00547948
0.00232715
-0.00558525
-0.00568622
0.00240072
0.00222798
-0.00555007
0.00229948
-0.00565675
-0.0057587
0.00237196
0.00220164
-0.00561964
0.00227208
-0.0057272
-0.00583006
0.00234344
0.002107
-0.00557593
0.00217556
-0.00568819
0.00224493
-0.00579658
-0.00590024
0.00231512
0.0020822
-0.00564259
0.00214973
-0.00575572
0.00221803
-0.00586487
-0.00596917
0.00228696
0.00199193
-0.00559062
0.00205764
-0.0057083
0.00212414
-0.00582222
0.00219133
-0.00593207
-0.00603673
0.00225889
0.00196859
0.00203334
0.0020988
0.00216482
0.00223089
0.00247209
0.000184582
0.0024679
0.000187814
0.00246369
0.00019092
0.00245946
0.00019391
0.00245521
0.000196796
0.00245095
0.000199589
0.00244668
0.000202299
0.00244238
0.000204939
0.00243808
0.00020752
0.00243376
0.000210056
0.00242943
0.000212558
0.00242508
0.000215041
0.00242073
0.000217517
0.00241636
0.000220001
0.00241198
0.000222506
0.00240759
0.000225049
0.000227644
0.00254736
-6.17577e-06
0.00254573
2.15753e-06
0.00254375
1.06046e-05
0.00254153
1.90215e-05
0.00253914
2.72224e-05
0.00253662
3.52101e-05
0.00253399
4.30106e-05
0.00253127
5.06544e-05
0.00252845
5.81618e-05
0.00252554
6.55421e-05
0.00252254
7.27966e-05
0.00251946
7.9921e-05
0.00251628
8.69078e-05
0.00251302
9.37477e-05
0.00250967
0.000100431
0.00250625
0.000106948
0.00250276
0.00011329
0.00249919
0.000119449
0.00249556
0.000125418
0.00249187
0.000131193
0.00248812
0.00013677
0.00248431
0.000142147
0.00248046
0.000147323
0.00247657
0.000152298
0.00247263
0.000157075
0.00246865
0.000161657
0.00246464
0.000166049
0.0024606
0.000170255
0.00245653
0.000174282
0.00245243
0.000178137
0.00244831
0.000181827
0.00244416
0.000185362
0.00243999
0.00018875
0.0024358
0.000192001
0.0024316
0.000195125
0.00242738
0.000198132
0.00242314
0.000201034
0.00241889
0.000203841
0.00241462
0.000206564
0.00241034
0.000209217
0.00240605
0.000211811
0.00240175
0.000214358
0.00239744
0.000216872
0.00239311
0.000219365
0.00238878
0.000221852
0.00238443
0.000224346
0.00238008
0.000226862
0.00237571
0.000229416
0.000232022
0.00251711
-4.86107e-06
0.00251532
3.94899e-06
0.00251317
1.2747e-05
0.0025108
2.13912e-05
0.00250829
2.97378e-05
0.00250567
3.78308e-05
0.00250296
4.57205e-05
0.00250016
5.34495e-05
0.00249728
6.10421e-05
0.00249432
6.85087e-05
0.00249126
7.585e-05
0.00248812
8.30606e-05
0.0024849
9.0132e-05
0.00248159
9.7054e-05
0.00247821
0.000103816
0.00247475
0.000110409
0.00247121
0.000116822
0.00246762
0.000123048
0.00246395
0.00012908
0.00246023
0.000134914
0.00245646
0.000140545
0.00245263
0.000145972
0.00244876
0.000151193
0.00244485
0.000156211
0.0024409
0.000161027
0.00243691
0.000165645
0.00243289
0.000170069
0.00242884
0.000174305
0.00242476
0.000178359
0.00242066
0.000182239
0.00241654
0.000185952
0.00241239
0.000189508
0.00240823
0.000192915
0.00240404
0.000196184
0.00239984
0.000199324
0.00239563
0.000202346
0.0023914
0.000205261
0.00238716
0.000208081
0.00238291
0.000210817
0.00237865
0.000213481
0.00237437
0.000216085
0.00237009
0.000218642
0.00236579
0.000221166
0.00236149
0.000223668
0.00235718
0.000226164
0.00235286
0.000228667
0.00234853
0.000231193
0.00234419
0.000233755
0.00023637
0.00248713
-3.41334e-06
0.00248515
5.92308e-06
0.00248283
1.50672e-05
0.00248031
2.39075e-05
0.00247768
3.23688e-05
0.00247497
4.05433e-05
0.00247219
4.85065e-05
0.00246932
5.63102e-05
0.00246639
6.39812e-05
0.00246336
7.15293e-05
0.00246026
7.89535e-05
0.00245707
8.62472e-05
0.00245381
9.34004e-05
0.00245046
0.000100402
0.00244703
0.00010724
0.00244354
0.000113905
0.00243997
0.000120387
0.00243634
0.000126678
0.00243265
0.00013277
0.00242891
0.000138659
0.00242511
0.000144342
0.00242126
0.000149816
0.00241738
0.000155082
0.00241345
0.000160139
0.00240948
0.000164992
0.00240549
0.000169643
0.00240146
0.000174097
0.0023974
0.00017836
0.00239332
0.000182439
0.00238922
0.000186342
0.00238509
0.000190076
0.00238095
0.000193651
0.00237679
0.000197075
0.00237262
0.00020036
0.00236842
0.000203514
0.00236422
0.00020655
0.00236001
0.000209477
0.00235578
0.000212308
0.00235154
0.000215054
0.00234729
0.000217728
0.00234304
0.000220341
0.00233877
0.000222907
0.0023345
0.000225439
0.00233022
0.000227949
0.00232593
0.000230453
0.00232163
0.000232963
0.00231733
0.000235496
0.00231302
0.000238066
0.000240689
0.0024574
-1.8028e-06
0.00245522
8.10428e-06
0.00245271
1.75732e-05
0.00245006
2.65663e-05
0.00244732
3.51062e-05
0.00244452
4.33381e-05
0.00244167
5.13598e-05
0.00243875
5.92293e-05
0.00243576
6.69731e-05
0.00243269
7.45987e-05
0.00242954
8.21029e-05
0.00242631
8.94771e-05
0.002423
9.67095e-05
0.00241961
0.000103788
0.00241615
0.0001107
0.00241262
0.000117436
0.00240903
0.000123984
0.00240537
0.000130336
0.00240165
0.000136486
0.00239789
0.000142428
0.00239407
0.00014816
0.00239021
0.000153679
0.0023863
0.000158985
0.00238236
0.00016408
0.00237839
0.000168967
0.00237438
0.000173649
0.00237035
0.000178131
0.00236629
0.000182419
0.0023622
0.000186521
0.0023581
0.000190445
0.00235398
0.000194198
0.00234984
0.000197789
0.00234569
0.000201229
0.00234152
0.000204528
0.00233734
0.000207695
0.00233315
0.000210742
0.00232894
0.00021368
0.00232473
0.000216521
0.00232051
0.000219276
0.00231628
0.000221958
0.00231204
0.000224578
0.0023078
0.000227151
0.00230355
0.00022969
0.00229929
0.000232206
0.00229503
0.000234716
0.00229076
0.000237233
0.00228648
0.000239771
0.0022822
0.000242347
0.000244976
0.00242792
9.43958e-09
0.0024255
1.05179e-05
0.00242281
2.02684e-05
0.00242002
2.9358e-05
0.00241719
3.79375e-05
0.00241432
4.62034e-05
0.00241141
5.42709e-05
0.00240844
6.21992e-05
0.0024054
7.00116e-05
0.00240229
7.77119e-05
0.0023991
8.52939e-05
0.00239583
9.27464e-05
0.00239248
0.000100056
0.00238906
0.000107209
0.00238557
0.000114193
0.00238201
0.000120996
0.00237838
0.000127608
0.0023747
0.00013402
0.00237096
0.000140224
0.00236717
0.000146218
0.00236333
0.000151996
0.00235945
0.000157557
0.00235554
0.000162902
0.00235159
0.000168032
0.0023476
0.00017295
0.00234359
0.000177661
0.00233955
0.000182169
0.00233549
0.00018648
0.00233141
0.000190603
0.00232731
0.000194545
0.00232319
0.000198315
0.00231906
0.000201922
0.00231491
0.000205376
0.00231075
0.000208686
0.00230658
0.000211864
0.00230241
0.000214921
0.00229822
0.000217868
0.00229402
0.000220717
0.00228982
0.00022348
0.00228561
0.000226168
0.00228139
0.000228795
0.00227717
0.000231374
0.00227294
0.000233917
0.00226871
0.000236439
0.00226447
0.000238953
0.00226023
0.000241474
0.00225598
0.000244017
0.00225173
0.000246598
0.000249231
0.00239865
2.0731e-06
0.00239598
1.31877e-05
0.0023931
2.31485e-05
0.00239019
3.2267e-05
0.00238729
4.08463e-05
0.00238436
4.9126e-05
0.0023814
5.72297e-05
0.00237839
6.52121e-05
0.00237531
7.30907e-05
0.00237216
8.08641e-05
0.00236893
8.85224e-05
0.00236563
9.60517e-05
0.00236225
0.000103437
0.00235879
0.000110663
0.00235527
0.000117717
0.00235168
0.000124585
0.00234803
0.000131258
0.00234432
0.000137727
0.00234056
0.000143984
0.00233676
0.000150025
0.0023329
0.000155847
0.00232901
0.000161449
0.00232508
0.00016683
0.00232112
0.000171993
0.00231713
0.00017694
0.00231312
0.000181677
0.00230908
0.000186208
0.00230502
0.000190541
0.00230094
0.000194683
0.00229684
0.000198642
0.00229273
0.000202427
0.0022886
0.000206047
0.00228447
0.000209512
0.00228032
0.000212834
0.00227616
0.000216021
0.002272
0.000219087
0.00226782
0.000222041
0.00226364
0.000224896
0.00225946
0.000227665
0.00225527
0.000230359
0.00225107
0.00023299
0.00224687
0.000235573
0.00224267
0.00023812
0.00223847
0.000240645
0.00223426
0.000243163
0.00223004
0.000245687
0.00222583
0.000248233
0.00222161
0.000250816
0.000253453
0.00236958
4.45103e-06
0.00236664
1.61311e-05
0.00236359
2.61989e-05
0.00236058
3.52708e-05
0.00235762
4.38135e-05
0.00235465
5.20917e-05
0.00235166
6.02258e-05
0.00234861
6.82606e-05
0.00234549
7.62047e-05
0.00234231
8.40507e-05
0.00233904
9.17844e-05
0.00233571
9.93893e-05
0.00233229
0.000106849
0.00232881
0.000114146
0.00232526
0.000121267
0.00232165
0.000128199
0.00231797
0.000134931
0.00231425
0.000141455
0.00231047
0.000147762
0.00230664
0.000153849
0.00230278
0.000159713
0.00229888
0.000165352
0.00229494
0.000170767
0.00229097
0.00017596
0.00228698
0.000180935
0.00228296
0.000185695
0.00227892
0.000190249
0.00227486
0.000194601
0.00227078
0.000198759
0.00226669
0.000202733
0.00226259
0.000206531
0.00225847
0.000210163
0.00225435
0.000213638
0.00225021
0.000216969
0.00224607
0.000220164
0.00224192
0.000223236
0.00223776
0.000226197
0.0022336
0.000229057
0.00222944
0.00023183
0.00222527
0.000234527
0.0022211
0.000237162
0.00221692
0.000239748
0.00221274
0.000242297
0.00220857
0.000244825
0.00220438
0.000247344
0.0022002
0.00024987
0.00219602
0.000252418
0.00219183
0.000255003
0.000257641
0.00234067
7.22059e-06
0.00233745
1.9353e-05
0.00233425
2.93909e-05
0.00233119
3.83395e-05
0.00232818
4.68173e-05
0.00232519
5.50858e-05
0.00232216
6.32496e-05
0.00231909
7.13376e-05
0.00231594
7.93482e-05
0.00231273
8.72672e-05
0.00230943
9.50763e-05
0.00230607
0.000102756
0.00230263
0.000110288
0.00229912
0.000117656
0.00229554
0.000124843
0.00229191
0.000131836
0.00228821
0.000138625
0.00228447
0.000145201
0.00228067
0.000151556
0.00227683
0.000157687
0.00227296
0.00016359
0.00226904
0.000169264
0.0022651
0.000174711
0.00226113
0.000179932
0.00225713
0.000184932
0.00225311
0.000189715
0.00224907
0.000194287
0.00224502
0.000198656
0.00224095
0.00020283
0.00223686
0.000206817
0.00223277
0.000210626
0.00222866
0.000214268
0.00222455
0.000217752
0.00222043
0.000221089
0.0022163
0.000224291
0.00221217
0.000227369
0.00220803
0.000230333
0.00220389
0.000233198
0.00219975
0.000235973
0.0021956
0.000238673
0.00219146
0.00024131
0.00218731
0.000243897
0.00218316
0.000246448
0.002179
0.000248976
0.00217485
0.000251496
0.0021707
0.000254022
0.00216655
0.00025657
0.0021624
0.000259155
0.000261794
0.00231187
1.04728e-05
0.00230839
2.28353e-05
0.0023051
3.2679e-05
0.002302
4.1437e-05
0.00229898
4.98348e-05
0.00229597
5.80943e-05
0.00229293
6.62918e-05
0.00228983
7.44369e-05
0.00228666
8.25165e-05
0.00228342
9.05098e-05
0.0022801
9.83946e-05
0.00227671
0.000106149
0.00227324
0.000113753
0.00226971
0.000121189
0.00226611
0.00012844
0.00226246
0.000135493
0.00225874
0.000142338
0.00225498
0.000148963
0.00225117
0.000155365
0.00224732
0.000161536
0.00224344
0.000167476
0.00223952
0.000173184
0.00223557
0.00017866
0.0022316
0.000183907
0.0022276
0.000188929
0.00222358
0.000193732
0.00221955
0.000198322
0.00221549
0.000202707
0.00221143
0.000206893
0.00220736
0.000210892
0.00220327
0.000214711
0.00219918
0.000218361
0.00219508
0.000221852
0.00219097
0.000225195
0.00218686
0.000228401
0.00218275
0.000231483
0.00217863
0.00023445
0.00217451
0.000237317
0.00217039
0.000240094
0.00216627
0.000242795
0.00216215
0.000245433
0.00215803
0.00024802
0.0021539
0.00025057
0.00214978
0.000253098
0.00214566
0.000255617
0.00214154
0.000258142
0.00213742
0.000260689
0.0021333
0.000263273
0.00026591
0.00228312
1.43076e-05
0.00227944
2.65218e-05
0.00227612
3.59975e-05
0.00227303
4.45227e-05
0.00227002
5.28439e-05
0.00226701
6.11051e-05
0.00226396
6.9345e-05
0.00226084
7.75531e-05
0.00225766
8.57054e-05
0.00225439
9.3775e-05
0.00225105
0.000101736
0.00224763
0.000109565
0.00224415
0.000117241
0.00224059
0.000124743
0.00223697
0.000132057
0.0022333
0.000139168
0.00222957
0.000146066
0.00222579
0.00015274
0.00222197
0.000159184
0.00221812
0.000165395
0.00221422
0.00017137
0.0022103
0.000177108
0.00220635
0.000182611
0.00220237
0.000187882
0.00219837
0.000192926
0.00219436
0.000197747
0.00219033
0.000202352
0.00218629
0.00020675
0.00218223
0.000210948
0.00217817
0.000214956
0.00217409
0.000218783
0.00217002
0.000222439
0.00216593
0.000225936
0.00216184
0.000229283
0.00215775
0.000232493
0.00215366
0.000235577
0.00214956
0.000238546
0.00214546
0.000241414
0.00214137
0.000244191
0.00213727
0.000246892
0.00213317
0.000249529
0.00212908
0.000252115
0.00212499
0.000254663
0.00212089
0.000257189
0.00211681
0.000259706
0.00211272
0.000262229
0.00210863
0.000264773
0.00210455
0.000267355
0.00026999
0.00225436
1.88414e-05
0.00225059
3.02883e-05
0.00224733
3.92605e-05
0.0022443
4.75552e-05
0.00224132
5.58258e-05
0.00223831
6.41083e-05
0.00223525
7.24031e-05
0.00223213
8.0682e-05
0.00222892
8.89116e-05
0.00222563
9.70599e-05
0.00222227
0.000105099
0.00221884
0.000113002
0.00221533
0.000120748
0.00221176
0.000128317
0.00220812
0.000135692
0.00220443
0.000142859
0.00220069
0.000149807
0.0021969
0.000156528
0.00219307
0.000163014
0.00218921
0.000169261
0.00218531
0.000175269
0.00218138
0.000181036
0.00217743
0.000186564
0.00217345
0.000191857
0.00216946
0.000196919
0.00216545
0.000201756
0.00216143
0.000206376
0.00215739
0.000210785
0.00215335
0.000214993
0.00214929
0.000219008
0.00214524
0.000222842
0.00214117
0.000226503
0.0021371
0.000230004
0.00213303
0.000233354
0.00212896
0.000236565
0.00212489
0.00023965
0.00212081
0.00024262
0.00211674
0.000245487
0.00211267
0.000248263
0.0021086
0.000250962
0.00210453
0.000253597
0.00210046
0.000256181
0.0020964
0.000258726
0.00209234
0.000261249
0.00208829
0.000263762
0.00208423
0.000266282
0.00208018
0.000268822
0.00207614
0.0002714
0.000274032
0.00222545
2.42781e-05
0.00222185
3.38882e-05
0.00221875
4.23591e-05
0.00221581
5.0502e-05
0.00221287
5.87673e-05
0.00220988
6.70979e-05
0.00220682
7.54624e-05
0.00220368
8.38207e-05
0.00220046
9.21324e-05
0.00219716
0.000100362
0.00219378
0.000108479
0.00219032
0.000116457
0.0021868
0.000124273
0.00218321
0.000131906
0.00217956
0.000139341
0.00217585
0.000146563
0.0021721
0.00015356
0.0021683
0.000160325
0.00216447
0.00016685
0.00216059
0.000173133
0.00215669
0.000179171
0.00215276
0.000184964
0.00214881
0.000190516
0.00214484
0.000195829
0.00214085
0.000200908
0.00213685
0.000205759
0.00213283
0.00021039
0.00212881
0.000214809
0.00212478
0.000219025
0.00212074
0.000223047
0.00211669
0.000226885
0.00211265
0.00023055
0.0021086
0.000234053
0.00210455
0.000237405
0.00210049
0.000240617
0.00209644
0.000243701
0.00209239
0.00024667
0.00208835
0.000249535
0.0020843
0.000252309
0.00208026
0.000255005
0.00207622
0.000257637
0.00207218
0.000260217
0.00206815
0.000262758
0.00206412
0.000265276
0.0020601
0.000267785
0.00205608
0.0002703
0.00205207
0.000272835
0.00204806
0.000275408
0.000278034
0.00615914
2.98681e-05
0.00615419
3.88425e-05
0.00614878
4.77652e-05
0.00614308
5.62027e-05
0.00613728
6.45724e-05
0.0061314
7.29766e-05
0.00612551
8.13497e-05
0.00611967
8.96608e-05
0.00611392
9.78842e-05
0.00610829
0.000105991
0.00610281
0.000113957
0.00609751
0.000121758
0.00609241
0.000129375
0.00608752
0.000136792
0.00608287
0.000143994
0.00607846
0.00015097
0.00607431
0.000157711
0.00607043
0.000164212
0.00606681
0.000170467
0.00606347
0.000176476
0.0060604
0.000182239
0.0060576
0.000187758
0.00605508
0.000193036
0.00605283
0.000198078
0.00605085
0.00020289
0.00604913
0.00020748
0.00604767
0.000211854
0.00604645
0.000216023
0.00604548
0.000219994
0.00604475
0.000223778
0.00604425
0.000227385
0.00604398
0.000230825
0.00604392
0.00023411
0.00604408
0.000237249
0.00604444
0.000240256
0.006045
0.00024314
0.00604576
0.000245914
0.0060467
0.000248591
0.00604783
0.000251181
0.00604914
0.000253698
0.00605062
0.000256155
0.00605227
0.000258564
0.00605409
0.000260939
0.00605607
0.000263293
0.00605822
0.000265641
0.00606052
0.000267998
0.00606297
0.000270379
0.00606558
0.0002728
0.000275277
0.00623713
3.66233e-05
0.00623131
4.46656e-05
0.00622507
5.40058e-05
0.00621848
6.27964e-05
0.0062117
7.13518e-05
0.00620481
7.98602e-05
0.00619789
8.8274e-05
0.00619099
9.65635e-05
0.00618416
0.000104716
0.00617743
0.000112713
0.00617086
0.000120534
0.00616445
0.000128163
0.00615824
0.000135584
0.00615225
0.000142783
0.00614649
0.000149752
0.00614098
0.00015648
0.00613573
0.000162963
0.00613075
0.000169198
0.00612603
0.000175182
0.00612159
0.000180917
0.00611743
0.000186404
0.00611354
0.000191647
0.00610992
0.000196652
0.00610658
0.000201423
0.0061035
0.000205969
0.00610068
0.000210298
0.00609812
0.000214417
0.0060958
0.000218336
0.00609373
0.000222064
0.0060919
0.000225611
0.0060903
0.000228988
0.00608892
0.000232204
0.00608776
0.000235272
0.0060868
0.000238201
0.00608606
0.000241002
0.00608551
0.000243688
0.00608516
0.000246268
0.00608499
0.000248756
0.00608501
0.000251163
0.00608521
0.000253501
0.00608558
0.000255782
0.00608612
0.000258019
0.00608684
0.000260227
0.00608771
0.000262417
0.00608875
0.000264604
0.00608995
0.000266802
0.0060913
0.000269027
0.00609281
0.000271294
0.000273619
0.00631111
4.48604e-05
0.00630323
5.25498e-05
0.00629535
6.18846e-05
0.00628735
7.07998e-05
0.00627927
7.94262e-05
0.00627117
8.7965e-05
0.00626307
9.63739e-05
0.00625502
0.000104616
0.00624705
0.00011268
0.00623921
0.000120553
0.00623153
0.000128219
0.00622403
0.000135665
0.00621673
0.00014288
0.00620966
0.000149854
0.00620283
0.000156581
0.00619625
0.000163055
0.00618994
0.000169275
0.0061839
0.000175238
0.00617814
0.000180947
0.00617265
0.000186404
0.00616744
0.000191613
0.00616251
0.00019658
0.00615785
0.00020131
0.00615346
0.000205811
0.00614934
0.000210091
0.00614548
0.000214159
0.00614187
0.000218023
0.00613852
0.000221693
0.0061354
0.000225179
0.00613252
0.000228491
0.00612987
0.000231639
0.00612744
0.000234633
0.00612523
0.000237484
0.00612322
0.000240203
0.00612143
0.0002428
0.00611983
0.000245287
0.00611842
0.000247674
0.0061172
0.000249973
0.00611617
0.000252196
0.00611532
0.000254354
0.00611464
0.000256459
0.00611414
0.000258524
0.0061138
0.000260562
0.00611363
0.000262587
0.00611362
0.00026461
0.00611378
0.000266648
0.00611409
0.000268715
0.00611456
0.000270825
0.0063772
5.47723e-05
0.0063676
6.21435e-05
0.00635811
7.13763e-05
0.00634863
8.02809e-05
0.00633917
8.88829e-05
0.00632976
9.73775e-05
0.00632041
0.000105723
0.00631116
0.000113872
0.00630202
0.000121813
0.00629304
0.000129533
0.00628424
0.00013702
0.00627564
0.000144263
0.00626727
0.000151253
0.00625914
0.000157987
0.00625126
0.000164458
0.00624365
0.000170666
0.00623631
0.000176611
0.00622926
0.000182295
0.00622248
0.000187722
0.00621599
0.000192895
0.00620978
0.000197821
0.00620386
0.000202507
0.00619821
0.00020696
0.00619283
0.000211189
0.00618772
0.000215201
0.00618287
0.000219007
0.00617828
0.000222616
0.00617393
0.000226037
0.00616983
0.000229281
0.00616596
0.000232357
0.00616233
0.000235276
0.00615891
0.000238047
0.00615572
0.000240681
0.00615273
0.000243189
0.00614995
0.000245581
0.00614737
0.000247868
0.00614498
0.000250061
0.00614279
0.00025217
0.00614077
0.000254207
0.00613894
0.000256183
0.00613729
0.000258111
0.00613582
0.000260002
0.00613451
0.000261868
0.00613337
0.000263724
0.0061324
0.000265582
0.00613159
0.000267456
0.00613095
0.000269361
0.000271312
0.0064343
6.61998e-05
0.00642316
7.32841e-05
0.00641212
8.241e-05
0.00640117
9.12403e-05
0.0063903
9.97453e-05
0.00637955
0.000108127
0.00636893
0.000116345
0.00635846
0.000124346
0.00634815
0.000132116
0.00633805
0.000139642
0.00632815
0.000146914
0.00631849
0.000153923
0.00630908
0.000160664
0.00629993
0.000167134
0.00629106
0.000173331
0.00628247
0.000179257
0.00627417
0.000184914
0.00626615
0.000190308
0.00625843
0.000195442
0.00625101
0.000200324
0.00624387
0.000204961
0.00623701
0.000209361
0.00623044
0.000213533
0.00622414
0.000217485
0.00621812
0.000221228
0.00621235
0.00022477
0.00620685
0.000228121
0.00620159
0.000231292
0.00619658
0.000234292
0.00619181
0.000237131
0.00618727
0.000239819
0.00618295
0.000242366
0.00617885
0.000244782
0.00617496
0.000247078
0.00617128
0.000249264
0.00616779
0.000251349
0.00616451
0.000253345
0.00616142
0.000255262
0.00615851
0.000257111
0.0061558
0.000258903
0.00615326
0.00026065
0.00615089
0.000262363
0.00614871
0.000264055
0.00614669
0.000265739
0.00614485
0.000267427
0.00614317
0.000269134
0.00614166
0.000270873
0.000272661
0.00648144
7.90309e-05
0.00646888
8.58475e-05
0.00645641
9.4874e-05
0.00644405
0.000103598
0.00643184
0.000111957
0.0064198
0.000120169
0.00640794
0.000128202
0.00639629
0.000136002
0.00638485
0.00014355
0.00637366
0.000150838
0.00636272
0.000157855
0.00635205
0.000164595
0.00634166
0.000171055
0.00633155
0.000177234
0.00632175
0.000183135
0.00631225
0.000188759
0.00630305
0.000194113
0.00629416
0.000199201
0.00628557
0.000204032
0.00627728
0.000208613
0.00626929
0.000212953
0.00626159
0.00021706
0.00625417
0.000220945
0.00624704
0.000224617
0.00624018
0.000228086
0.00623359
0.000231361
0.00622726
0.000234452
0.00622118
0.00023737
0.00621535
0.000240124
0.00620976
0.000242724
0.0062044
0.000245179
0.00619926
0.0002475
0.00619435
0.000249697
0.00618965
0.000251778
0.00618516
0.000253755
0.00618087
0.000255636
0.00617678
0.000257433
0.00617289
0.000259155
0.00616919
0.000260813
0.00616567
0.000262418
0.00616234
0.00026398
0.00615919
0.000265513
0.00615622
0.000267027
0.00615343
0.000268535
0.0061508
0.000270049
0.00614835
0.000271584
0.00614607
0.000273153
0.000274772
0.00651769
9.31697e-05
0.00650382
9.97168e-05
0.00649006
0.000108639
0.00647642
0.000117234
0.00646297
0.000125409
0.00644973
0.000133408
0.00643673
0.000141209
0.00642397
0.000148756
0.00641148
0.000156037
0.00639928
0.000163042
0.00638737
0.000169764
0.00637577
0.000176199
0.00636448
0.000182346
0.0063535
0.000188207
0.00634285
0.000193786
0.00633252
0.000199088
0.00632252
0.000204119
0.00631283
0.000208887
0.00630346
0.000213401
0.00629441
0.00021767
0.00628565
0.000221704
0.0062772
0.000225511
0.00626905
0.000229103
0.00626117
0.000232489
0.00625358
0.00023568
0.00624626
0.000238684
0.0062392
0.000241512
0.00623239
0.000244174
0.00622584
0.000246679
0.00621953
0.000249037
0.00621345
0.000251257
0.0062076
0.00025335
0.00620197
0.000255323
0.00619656
0.000257187
0.00619137
0.000258952
0.00618637
0.000260627
0.00618159
0.000262221
0.006177
0.000263745
0.0061726
0.000265208
0.0061684
0.000266622
0.00616438
0.000267997
0.00616055
0.000269345
0.0061569
0.000270676
0.00615343
0.000272003
0.00615014
0.000273339
0.00614703
0.000274698
0.00614409
0.000276092
0.00654225
0.000108516
0.00652719
0.000114776
0.00651226
0.000123576
0.00649748
0.000132013
0.00648292
0.00013997
0.00646861
0.000147717
0.00645458
0.000155242
0.00644084
0.000162496
0.00642741
0.000169465
0.0064143
0.000176146
0.00640153
0.000182534
0.0063891
0.000188629
0.00637702
0.000194432
0.00636528
0.000199947
0.00635388
0.000205179
0.00634283
0.000210137
0.00633213
0.000214827
0.00632175
0.00021926
0.00631171
0.000223444
0.00630199
0.00022739
0.00629259
0.000231107
0.00628349
0.000234607
0.0062747
0.000237899
0.00626619
0.000240993
0.00625797
0.000243899
0.00625003
0.000246628
0.00624235
0.000249189
0.00623493
0.000251592
0.00622777
0.000253845
0.00622085
0.000255958
0.00621416
0.00025794
0.00620771
0.000259801
0.00620149
0.000261549
0.00619548
0.000263193
0.00618969
0.000264742
0.00618411
0.000266207
0.00617874
0.000267595
0.00617357
0.000268917
0.00616859
0.000270182
0.00616381
0.000271401
0.00615923
0.000272584
0.00615483
0.000273743
0.00615062
0.000274887
0.00614659
0.00027603
0.00614275
0.000277183
0.00613908
0.00027836
0.000279574
0.00655438
0.000124958
0.00653825
0.000130904
0.00652228
0.000139546
0.00650651
0.00014779
0.00649098
0.000155491
0.00647575
0.000162947
0.00646084
0.000170157
0.00644626
0.000177076
0.00643203
0.000183694
0.00641816
0.000190014
0.00640466
0.000196033
0.00639154
0.000201755
0.00637878
0.000207184
0.00636641
0.000212326
0.0063544
0.000217189
0.00634275
0.000221782
0.00633146
0.000226114
0.00632053
0.000230195
0.00630994
0.000234036
0.00629968
0.000237647
0.00628975
0.000241039
0.00628013
0.000244223
0.00627082
0.000247208
0.00626181
0.000250005
0.00625308
0.000252623
0.00624464
0.000255072
0.00623647
0.000257362
0.00622856
0.000259501
0.00622091
0.000261498
0.0062135
0.000263363
0.00620634
0.000265104
0.00619941
0.00026673
0.00619271
0.000268249
0.00618623
0.00026967
0.00617997
0.000271001
0.00617393
0.000272251
0.00616809
0.00027343
0.00616246
0.000274547
0.00615703
0.000275611
0.0061518
0.000276631
0.00614677
0.000277618
0.00614193
0.000278583
0.00613728
0.000279536
0.00613282
0.00028049
0.00612855
0.000281455
0.00612446
0.000282446
0.000283476
0.00655339
0.000142367
0.00653634
0.000147962
0.00651948
0.000156398
0.00650287
0.000164405
0.00648655
0.000171809
0.00647057
0.000178931
0.00645494
0.000185786
0.00643968
0.000192331
0.00642482
0.000198562
0.00641034
0.000204484
0.00639627
0.000210103
0.00638261
0.000215423
0.00636934
0.00022045
0.00635647
0.000225196
0.00634399
0.000229668
0.0063319
0.000233878
0.00632017
0.000237835
0.00630882
0.000241552
0.00629782
0.000245038
0.00628716
0.000248305
0.00627684
0.000251363
0.00626684
0.000254223
0.00625715
0.000256895
0.00624777
0.000259388
0.00623868
0.000261713
0.00622987
0.000263878
0.00622134
0.000265893
0.00621307
0.000267765
0.00620507
0.000269504
0.00619731
0.000271118
0.0061898
0.000272614
0.00618253
0.000274002
0.00617549
0.000275289
0.00616868
0.000276483
0.00616208
0.000277593
0.00615571
0.000278627
0.00614955
0.000279593
0.00614359
0.000280501
0.00613784
0.000281359
0.0061323
0.000282177
0.00612695
0.000282965
0.0061218
0.000283732
0.00611685
0.000284491
0.00611209
0.000285251
0.00610752
0.000286025
0.00610314
0.000286825
0.000287665
0.00653868
0.000160588
0.00652085
0.00016579
0.00650329
0.000173964
0.00648601
0.00018168
0.00646908
0.000188739
0.00645253
0.000195484
0.00643638
0.000201942
0.00642063
0.000208075
0.00640531
0.000213883
0.00639042
0.000219376
0.00637596
0.000224564
0.00636192
0.000229455