/*--------------------------------*- C++ -*----------------------------------*\
  =========                 |
  \\      /  F ield         | OpenFOAM: The Open Source CFD Toolbox
   \\    /   O peration     | Website:  https://openfoam.org
    \\  /    A nd           | Version:  7
     \\/     M anipulation  |
\*---------------------------------------------------------------------------*/
FoamFile
{
    version     2.0;
    format      ascii;
    class       volScalarField;
    location    "10";
    object      p;
}
// * * * * * * * * * * * * * * * * * * * * * * * * * * * * * * * * * * * * * //

dimensions      [0 2 -2 0 0 0 0];

internalField   nonuniform List<scalar> 
24200
(
-0.31324
-0.316844
-0.317762
-0.319167
-0.320241
-0.321422
-0.322666
-0.324027
-0.325507
-0.327113
-0.328848
-0.330714
-0.332714
-0.334852
-0.313337
-0.31692
-0.317834
-0.319232
-0.320303
-0.321482
-0.322724
-0.324083
-0.325561
-0.327166
-0.328899
-0.330764
-0.332764
-0.334902
-0.31353
-0.317069
-0.317976
-0.319363
-0.320427
-0.3216
-0.322838
-0.324193
-0.325668
-0.32727
-0.329001
-0.330864
-0.332863
-0.335
-0.313816
-0.317292
-0.318187
-0.319556
-0.32061
-0.321775
-0.323006
-0.324355
-0.325826
-0.327423
-0.32915
-0.33101
-0.333006
-0.335142
-0.314193
-0.317586
-0.318465
-0.31981
-0.320852
-0.322005
-0.323226
-0.324567
-0.32603
-0.327621
-0.329342
-0.331196
-0.333188
-0.335322
-0.314656
-0.317948
-0.318807
-0.320123
-0.321147
-0.322285
-0.323494
-0.324824
-0.326276
-0.327858
-0.32957
-0.331417
-0.333402
-0.335531
-0.337807
-0.315202
-0.318376
-0.31921
-0.320491
-0.321494
-0.322613
-0.323806
-0.325121
-0.32656
-0.328128
-0.329829
-0.331665
-0.33364
-0.335761
-0.338032
-0.315824
-0.318864
-0.31967
-0.320909
-0.321887
-0.322982
-0.324155
-0.325452
-0.326873
-0.328425
-0.33011
-0.331931
-0.333893
-0.336001
-0.338262
-0.316518
-0.319409
-0.320183
-0.321374
-0.322322
-0.323389
-0.324537
-0.325811
-0.327211
-0.328741
-0.330405
-0.332207
-0.33415
-0.336241
-0.338486
-0.317276
-0.320006
-0.320743
-0.321881
-0.322794
-0.323828
-0.324946
-0.326191
-0.327564
-0.329068
-0.330706
-0.332482
-0.334401
-0.336469
-0.338693
-0.318092
-0.320652
-0.321348
-0.322426
-0.323298
-0.324292
-0.325375
-0.326587
-0.327926
-0.329398
-0.331004
-0.332749
-0.334636
-0.336674
-0.33887
-0.318958
-0.32134
-0.32199
-0.323003
-0.323828
-0.324778
-0.325819
-0.32699
-0.32829
-0.329723
-0.33129
-0.332996
-0.334846
-0.336847
-0.339006
-0.31987
-0.322066
-0.322667
-0.323608
-0.324381
-0.325278
-0.32627
-0.327394
-0.328647
-0.330035
-0.331557
-0.333217
-0.335021
-0.336977
-0.339093
-0.320818
-0.322826
-0.323373
-0.324236
-0.324949
-0.325787
-0.326724
-0.327793
-0.328993
-0.330326
-0.331795
-0.333403
-0.335154
-0.337058
-0.339121
-0.321798
-0.323614
-0.324103
-0.324882
-0.32553
-0.326301
-0.327175
-0.328181
-0.329319
-0.330592
-0.332
-0.333547
-0.335238
-0.337081
-0.339084
-0.322802
-0.324427
-0.324853
-0.325543
-0.326118
-0.326815
-0.327617
-0.328552
-0.329621
-0.330825
-0.332165
-0.333644
-0.335268
-0.337043
-0.338979
-0.341084
-0.323824
-0.325261
-0.32562
-0.326215
-0.326709
-0.327324
-0.328046
-0.328903
-0.329895
-0.331022
-0.332287
-0.33369
-0.335239
-0.33694
-0.338802
-0.340833
-0.324861
-0.326113
-0.3264
-0.326895
-0.327301
-0.327826
-0.32846
-0.32923
-0.330136
-0.33118
-0.332361
-0.333683
-0.335151
-0.336771
-0.338554
-0.340505
-0.325907
-0.326979
-0.327191
-0.327579
-0.32789
-0.328317
-0.328855
-0.32953
-0.330343
-0.331295
-0.332386
-0.33362
-0.335002
-0.336537
-0.338235
-0.340103
-0.326959
-0.327857
-0.32799
-0.328266
-0.328475
-0.328796
-0.329229
-0.3298
-0.330513
-0.331367
-0.332363
-0.333504
-0.334794
-0.33624
-0.33785
-0.339632
-0.328014
-0.328745
-0.328795
-0.328955
-0.329054
-0.32926
-0.329581
-0.330042
-0.330646
-0.331396
-0.332292
-0.333335
-0.33453
-0.335885
-0.337404
-0.339097
-0.32907
-0.329643
-0.329605
-0.329644
-0.329626
-0.329711
-0.329911
-0.330254
-0.330744
-0.331384
-0.332175
-0.333117
-0.334215
-0.335475
-0.336903
-0.338506
-0.340286
-0.330126
-0.33055
-0.330421
-0.330334
-0.330191
-0.330147
-0.330219
-0.330438
-0.330809
-0.331334
-0.332016
-0.332854
-0.333854
-0.335019
-0.336355
-0.337867
-0.339556
-0.331183
-0.331466
-0.331242
-0.331024
-0.330751
-0.33057
-0.330508
-0.330596
-0.330842
-0.33125
-0.331819
-0.332553
-0.333452
-0.334522
-0.335767
-0.337188
-0.338786
-0.332241
-0.332392
-0.332069
-0.331715
-0.331305
-0.330982
-0.33078
-0.330732
-0.33085
-0.331136
-0.331592
-0.332219
-0.333018
-0.333994
-0.335146
-0.336477
-0.337983
-0.333303
-0.333331
-0.332903
-0.332411
-0.331858
-0.331386
-0.331038
-0.33085
-0.330835
-0.330997
-0.331339
-0.331859
-0.332559
-0.33344
-0.334502
-0.335741
-0.337151
-0.338718
-0.334372
-0.334281
-0.333749
-0.333112
-0.33241
-0.331784
-0.331286
-0.330954
-0.330804
-0.330841
-0.331067
-0.331482
-0.332083
-0.33287
-0.33384
-0.334985
-0.336295
-0.33775
-0.335451
-0.335249
-0.334607
-0.333821
-0.332966
-0.332181
-0.331529
-0.33105
-0.330763
-0.330674
-0.330785
-0.331094
-0.331597
-0.33229
-0.333166
-0.334214
-0.335416
-0.336746
-0.336547
-0.336237
-0.335482
-0.334543
-0.333529
-0.332582
-0.331771
-0.331143
-0.330718
-0.330503
-0.3305
-0.330703
-0.331108
-0.331705
-0.332485
-0.333428
-0.334511
-0.335701
-0.336953
-0.337664
-0.337249
-0.336377
-0.335281
-0.334104
-0.33299
-0.332019
-0.33124
-0.330677
-0.330336
-0.330218
-0.330316
-0.330622
-0.331121
-0.331798
-0.332627
-0.333578
-0.334607
-0.335663
-0.338809
-0.338291
-0.337296
-0.336039
-0.334696
-0.333413
-0.332279
-0.331349
-0.330646
-0.33018
-0.329947
-0.32994
-0.330144
-0.330541
-0.331106
-0.331809
-0.332608
-0.333452
-0.334283
-0.33999
-0.339366
-0.338245
-0.336823
-0.335309
-0.333854
-0.332557
-0.331474
-0.330633
-0.330042
-0.329695
-0.32958
-0.329679
-0.329966
-0.330408
-0.330967
-0.331591
-0.332224
-0.332798
-0.333241
-0.341214
-0.340481
-0.339229
-0.337637
-0.33595
-0.334321
-0.332859
-0.331624
-0.330645
-0.329928
-0.329466
-0.329241
-0.329228
-0.329395
-0.329699
-0.330093
-0.330517
-0.330907
-0.331192
-0.331297
-0.34249
-0.341641
-0.340254
-0.338487
-0.336624
-0.334819
-0.333192
-0.331805
-0.330688
-0.329845
-0.329265
-0.328926
-0.328793
-0.328825
-0.328973
-0.329178
-0.329373
-0.329488
-0.32945
-0.329188
-0.343825
-0.342852
-0.341325
-0.339379
-0.337337
-0.335355
-0.333563
-0.332024
-0.330769
-0.329799
-0.329098
-0.328636
-0.328372
-0.328254
-0.328222
-0.32821
-0.328144
-0.327952
-0.327562
-0.326909
-0.325936
-0.345228
-0.344121
-0.342448
-0.340318
-0.338095
-0.335935
-0.333978
-0.332287
-0.330893
-0.329794
-0.328966
-0.328373
-0.327962
-0.327673
-0.327436
-0.327177
-0.326819
-0.326289
-0.325521
-0.324459
-0.323061
-0.34671
-0.345455
-0.34363
-0.341311
-0.338903
-0.336565
-0.334442
-0.3326
-0.331066
-0.329833
-0.328871
-0.328134
-0.327559
-0.327075
-0.326604
-0.326066
-0.325385
-0.32449
-0.323324
-0.321844
-0.320021
-0.317843
-0.348277
-0.346858
-0.344877
-0.342363
-0.339769
-0.337251
-0.334963
-0.332969
-0.331292
-0.32992
-0.328815
-0.327917
-0.327156
-0.326451
-0.325715
-0.324868
-0.323833
-0.32255
-0.320972
-0.319072
-0.316835
-0.314263
-0.34994
-0.348339
-0.346195
-0.34348
-0.340699
-0.338
-0.335546
-0.333398
-0.331575
-0.330057
-0.328794
-0.327719
-0.326747
-0.32579
-0.324758
-0.32357
-0.322156
-0.320468
-0.318472
-0.316157
-0.313523
-0.310582
-0.307354
-0.351711
-0.349904
-0.34759
-0.344667
-0.341695
-0.338814
-0.336193
-0.333888
-0.331913
-0.330238
-0.328803
-0.327527
-0.326318
-0.325078
-0.323719
-0.322162
-0.320349
-0.318245
-0.315832
-0.313114
-0.310104
-0.306824
-0.303298
-0.353609
-0.351563
-0.349067
-0.345925
-0.342756
-0.339689
-0.336898
-0.334432
-0.332298
-0.330454
-0.328828
-0.327327
-0.325851
-0.324299
-0.322583
-0.320634
-0.318408
-0.315885
-0.313064
-0.309961
-0.3066
-0.30301
-0.299218
-0.295247
-0.355611
-0.353313
-0.350633
-0.34727
-0.343904
-0.340652
-0.337689
-0.335058
-0.332755
-0.330727
-0.328887
-0.327134
-0.325359
-0.323461
-0.321359
-0.318997
-0.316348
-0.313406
-0.310188
-0.30672
-0.303034
-0.299162
-0.295131
-0.290963
-0.357736
-0.355163
-0.352296
-0.348704
-0.345139
-0.341699
-0.338561
-0.335758
-0.333274
-0.331042
-0.328964
-0.326927
-0.324819
-0.322545
-0.320033
-0.317243
-0.314166
-0.310814
-0.307214
-0.303404
-0.299419
-0.295292
-0.291049
-0.286707
-0.28228
-0.359996
-0.35712
-0.354058
-0.35023
-0.346463
-0.342831
-0.339513
-0.336529
-0.333849
-0.331392
-0.329047
-0.326694
-0.324221
-0.321541
-0.318599
-0.315373
-0.311871
-0.308119
-0.304159
-0.30003
-0.295772
-0.291415
-0.286981
-0.282486
-0.277937
-0.273336
-0.362396
-0.35919
-0.355926
-0.351854
-0.34788
-0.344052
-0.340548
-0.337371
-0.334477
-0.33177
-0.329127
-0.326424
-0.323555
-0.320445
-0.317058
-0.313391
-0.30947
-0.305335
-0.301035
-0.296612
-0.292104
-0.287539
-0.282935
-0.278302
-0.273645
-0.268963
-0.364942
-0.361378
-0.357905
-0.35358
-0.349395
-0.345366
-0.341667
-0.338284
-0.335155
-0.332169
-0.329195
-0.326108
-0.322813
-0.319251
-0.315408
-0.311302
-0.306973
-0.302474
-0.297854
-0.29316
-0.288424
-0.28367
-0.278913
-0.274157
-0.269403
-0.264649
-0.259887
-0.36764
-0.363688
-0.359999
-0.355412
-0.351013
-0.346776
-0.342872
-0.339265
-0.335877
-0.332581
-0.32924
-0.325736
-0.321986
-0.317956
-0.313652
-0.309112
-0.304391
-0.299545
-0.294628
-0.289683
-0.284739
-0.279814
-0.274917
-0.27005
-0.265209
-0.260389
-0.255583
-0.250785
-0.370495
-0.366125
-0.362214
-0.357357
-0.352737
-0.348284
-0.344163
-0.340312
-0.336637
-0.332996
-0.329252
-0.325297
-0.32107
-0.316559
-0.311794
-0.30683
-0.301731
-0.296559
-0.291366
-0.286189
-0.281054
-0.275972
-0.270948
-0.265979
-0.261059
-0.25618
-0.251335
-0.246515
-0.241713
-0.37351
-0.368694
-0.364553
-0.359417
-0.354571
-0.349893
-0.345538
-0.341421
-0.337425
-0.333402
-0.329219
-0.324783
-0.320059
-0.31506
-0.309838
-0.304462
-0.299003
-0.293524
-0.288074
-0.282683
-0.277371
-0.272144
-0.267003
-0.26194
-0.256948
-0.252017
-0.247136
-0.242298
-0.237495
-0.23272
-0.376691
-0.371398
-0.367022
-0.361598
-0.356518
-0.351604
-0.346997
-0.342584
-0.338233
-0.33379
-0.329131
-0.324187
-0.318949
-0.313459
-0.307787
-0.302014
-0.296214
-0.290447
-0.284756
-0.279167
-0.273691
-0.268331
-0.263081
-0.257932
-0.252873
-0.247893
-0.242982
-0.238129
-0.233326
-0.228567
-0.380039
-0.374241
-0.369624
-0.363903
-0.358581
-0.353417
-0.348535
-0.343796
-0.339051
-0.334147
-0.328978
-0.323501
-0.31774
-0.31176
-0.305649
-0.299494
-0.29337
-0.287333
-0.281417
-0.275643
-0.270015
-0.264529
-0.259178
-0.253949
-0.248829
-0.243805
-0.238866
-0.234001
-0.229201
-0.22446
-0.21977
-0.383557
-0.377226
-0.372364
-0.366336
-0.360764
-0.355332
-0.350149
-0.345047
-0.339867
-0.334462
-0.328749
-0.32272
-0.316429
-0.309964
-0.303426
-0.296906
-0.290476
-0.284184
-0.278059
-0.272111
-0.26634
-0.260738
-0.255292
-0.249988
-0.244811
-0.239747
-0.234783
-0.229909
-0.225114
-0.220392
-0.215734
-0.211138
-0.387247
-0.380356
-0.375244
-0.3689
-0.363066
-0.357347
-0.351833
-0.346329
-0.340669
-0.334722
-0.328437
-0.32184
-0.315016
-0.308074
-0.301124
-0.294256
-0.287536
-0.281004
-0.274681
-0.26857
-0.262664
-0.256952
-0.251418
-0.246044
-0.240814
-0.235714
-0.230729
-0.225848
-0.22106
-0.216358
-0.211733
-0.207182
-0.202699
-0.39111
-0.383633
-0.378267
-0.371598
-0.365488
-0.359459
-0.353579
-0.347629
-0.341443
-0.334916
-0.328032
-0.320856
-0.313502
-0.306094
-0.298747
-0.291546
-0.284552
-0.277793
-0.271283
-0.265018
-0.258986
-0.25317
-0.247552
-0.242112
-0.236834
-0.231701
-0.226697
-0.221812
-0.217033
-0.212352
-0.207761
-0.203254
-0.198828
-0.194479
-0.190205
-0.395145
-0.38706
-0.381436
-0.374431
-0.36803
-0.361663
-0.355378
-0.348934
-0.342178
-0.335034
-0.327529
-0.319767
-0.311887
-0.304025
-0.296296
-0.288779
-0.281524
-0.274552
-0.267865
-0.261454
-0.255301
-0.249387
-0.24369
-0.23819
-0.232867
-0.227703
-0.222684
-0.217796
-0.213028
-0.208369
-0.203812
-0.199351
-0.19498
-0.190696
-0.186497
-0.182386
-0.399354
-0.390637
-0.384752
-0.3774
-0.37069
-0.363953
-0.357219
-0.350232
-0.342858
-0.335063
-0.32692
-0.31857
-0.310172
-0.30187
-0.293775
-0.285957
-0.278454
-0.271278
-0.264423
-0.257873
-0.251607
-0.2456
-0.239829
-0.234271
-0.228907
-0.223717
-0.218684
-0.213796
-0.20904
-0.204405
-0.199882
-0.195466
-0.19115
-0.18693
-0.182804
-0.178773
-0.174825
-0.403733
-0.394364
-0.388217
-0.380504
-0.373464
-0.36632
-0.359088
-0.351506
-0.34347
-0.334994
-0.326201
-0.317263
-0.308358
-0.29963
-0.291184
-0.283078
-0.27534
-0.26797
-0.260955
-0.254274
-0.247899
-0.241804
-0.235963
-0.230353
-0.22495
-0.219736
-0.214694
-0.209807
-0.205064
-0.200454
-0.195967
-0.191595
-0.187333
-0.183177
-0.179122
-0.175169
-0.171308
-0.167572
-0.408279
-0.398242
-0.391828
-0.383743
-0.376346
-0.368755
-0.360973
-0.352742
-0.344
-0.334818
-0.325365
-0.315845
-0.306444
-0.297306
-0.288523
-0.280143
-0.27218
-0.264626
-0.257459
-0.250651
-0.244174
-0.237996
-0.23209
-0.22643
-0.220993
-0.215758
-0.210707
-0.205825
-0.201097
-0.196512
-0.192061
-0.187734
-0.183526
-0.179431
-0.175446
-0.171569
-0.167792
-0.164143
-0.160536
-0.157198
-0.41299
-0.402267
-0.395586
-0.387111
-0.379329
-0.371244
-0.362855
-0.353923
-0.344436
-0.334527
-0.32441
-0.314314
-0.304432
-0.294898
-0.285793
-0.277151
-0.268973
-0.261242
-0.25393
-0.247003
-0.240428
-0.234171
-0.228204
-0.222499
-0.217031
-0.211778
-0.206722
-0.201845
-0.197134
-0.192576
-0.18816
-0.183879
-0.179723
-0.175689
-0.171772
-0.16797
-0.164274
-0.160709
-0.157196
-0.153948
-0.417858
-0.406437
-0.399487
-0.390604
-0.382403
-0.373773
-0.364719
-0.355031
-0.344764
-0.334111
-0.323331
-0.312669
-0.302319
-0.292405
-0.282992
-0.274098
-0.265716
-0.257816
-0.250365
-0.243324
-0.236656
-0.230327
-0.224302
-0.218555
-0.213059
-0.207792
-0.202733
-0.197864
-0.193171
-0.188641
-0.184262
-0.180025
-0.175923
-0.171948
-0.168097
-0.164367
-0.16075
-0.157265
-0.153844
-0.150683
-0.422877
-0.410748
-0.403525
-0.394215
-0.385555
-0.376325
-0.366545
-0.356051
-0.344972
-0.333564
-0.322123
-0.310909
-0.300106
-0.289826
-0.280117
-0.270984
-0.262405
-0.254344
-0.246761
-0.239612
-0.232856
-0.226457
-0.220381
-0.214596
-0.209075
-0.203796
-0.198736
-0.193878
-0.189205
-0.184703
-0.180362
-0.17617
-0.172119
-0.168204
-0.164418
-0.160758
-0.157217
-0.153811
-0.150477
-0.1474
-0.428039
-0.415194
-0.407694
-0.397934
-0.388772
-0.378881
-0.368313
-0.356966
-0.345048
-0.332879
-0.320785
-0.30903
-0.29779
-0.287159
-0.277167
-0.267804
-0.259037
-0.250823
-0.243113
-0.235861
-0.229024
-0.22256
-0.216435
-0.210616
-0.205075
-0.199787
-0.194729
-0.189883
-0.185231
-0.18076
-0.176456
-0.172309
-0.168311
-0.164453
-0.160731
-0.157139
-0.153673
-0.150342
-0.147094
-0.144095
-0.433332
-0.419767
-0.411986
-0.401748
-0.392036
-0.38142
-0.370003
-0.357759
-0.344981
-0.332048
-0.319311
-0.307031
-0.29537
-0.284401
-0.274137
-0.264554
-0.255608
-0.247247
-0.239418
-0.232069
-0.225154
-0.218631
-0.212462
-0.206613
-0.201055
-0.195761
-0.190708
-0.185876
-0.181248
-0.176807
-0.172542
-0.168441
-0.164494
-0.160694
-0.157034
-0.153509
-0.150114
-0.146857
-0.143691
-0.140768
-0.438745
-0.424458
-0.41639
-0.405644
-0.395328
-0.383921
-0.371594
-0.358414
-0.344761
-0.331066
-0.317697
-0.304909
-0.292842
-0.281549
-0.271025
-0.261232
-0.252115
-0.243614
-0.235671
-0.228231
-0.221245
-0.214667
-0.208458
-0.202583
-0.197011
-0.191715
-0.186669
-0.181854
-0.17725
-0.172843
-0.168617
-0.164561
-0.160666
-0.156923
-0.153324
-0.149865
-0.14654
-0.143354
-0.140266
-0.137417
-0.444263
-0.429256
-0.420891
-0.409604
-0.398625
-0.386359
-0.373065
-0.358915
-0.344376
-0.329926
-0.315941
-0.30266
-0.290202
-0.278599
-0.267827
-0.257833
-0.248553
-0.239919
-0.231869
-0.224344
-0.217291
-0.210664
-0.20442
-0.198523
-0.192941
-0.187645
-0.18261
-0.177813
-0.173237
-0.168863
-0.164678
-0.160668
-0.156824
-0.153137
-0.149599
-0.146204
-0.142947
-0.13983
-0.136819
-0.13404
-0.449869
-0.434147
-0.425476
-0.41361
-0.401905
-0.38871
-0.374396
-0.359247
-0.343818
-0.328623
-0.314036
-0.30028
-0.287448
-0.275549
-0.264539
-0.254353
-0.244917
-0.236158
-0.228008
-0.220404
-0.21329
-0.206618
-0.200344
-0.19443
-0.188842
-0.18355
-0.178527
-0.173752
-0.169204
-0.164866
-0.160722
-0.156759
-0.152967
-0.149335
-0.145857
-0.142525
-0.139335
-0.136285
-0.133348
-0.130636
-0.455546
-0.439115
-0.430126
-0.417638
-0.40514
-0.390949
-0.375564
-0.359395
-0.343077
-0.327149
-0.31198
-0.297766
-0.284576
-0.272392
-0.261155
-0.250787
-0.241205
-0.232328
-0.224084
-0.216406
-0.209238
-0.202527
-0.196228
-0.1903
-0.18471
-0.179425
-0.174419
-0.169667
-0.16515
-0.160848
-0.156747
-0.152832
-0.149091
-0.145516
-0.142096
-0.138826
-0.135701
-0.132716
-0.129852
-0.127204
-0.461272
-0.444144
-0.434819
-0.421664
-0.408304
-0.393048
-0.37655
-0.359346
-0.342143
-0.325499
-0.309766
-0.295113
-0.281579
-0.269125
-0.257672
-0.247132
-0.23741
-0.228423
-0.220093
-0.212349
-0.205132
-0.198387
-0.192068
-0.186132
-0.180543
-0.175269
-0.170282
-0.165557
-0.161072
-0.156809
-0.152751
-0.148884
-0.145196
-0.141676
-0.138315
-0.135106
-0.132044
-0.129124
-0.126328
-0.123743
-0.467023
-0.449212
-0.439534
-0.425661
-0.411365
-0.394982
-0.377334
-0.359086
-0.341008
-0.323666
-0.30739
-0.292316
-0.278455
-0.265742
-0.254086
-0.243382
-0.233531
-0.224442
-0.216032
-0.208229
-0.200969
-0.194196
-0.187861
-0.181921
-0.176338
-0.171079
-0.166114
-0.161418
-0.156968
-0.152746
-0.148733
-0.144915
-0.141279
-0.137814
-0.134512
-0.131363
-0.128363
-0.125506
-0.122778
-0.120252
-0.472776
-0.454297
-0.444244
-0.4296
-0.414295
-0.396724
-0.377897
-0.358602
-0.339663
-0.321644
-0.304846
-0.28937
-0.275197
-0.26224
-0.25039
-0.239533
-0.229562
-0.220378
-0.211897
-0.204041
-0.196745
-0.18995
-0.183605
-0.177666
-0.172093
-0.166852
-0.161913
-0.157249
-0.152836
-0.148656
-0.144689
-0.140921
-0.137339
-0.13393
-0.130685
-0.127597
-0.124658
-0.121862
-0.1192
-0.116731
-0.478502
-0.459375
-0.448921
-0.433448
-0.417061
-0.398249
-0.378219
-0.357881
-0.3381
-0.319427
-0.302128
-0.28627
-0.2718
-0.258613
-0.246581
-0.235582
-0.225499
-0.21623
-0.207684
-0.199783
-0.192458
-0.185647
-0.179298
-0.173364
-0.167806
-0.162587
-0.157677
-0.153047
-0.148675
-0.144539
-0.14062
-0.136903
-0.133374
-0.130022
-0.126835
-0.123806
-0.120927
-0.118192
-0.115594
-0.11318
-0.484171
-0.464418
-0.453534
-0.437173
-0.419632
-0.399531
-0.378283
-0.356912
-0.336309
-0.317007
-0.299231
-0.283009
-0.26826
-0.254856
-0.242655
-0.231523
-0.221338
-0.211993
-0.203392
-0.195453
-0.188104
-0.181284
-0.174936
-0.169013
-0.163474
-0.158282
-0.153404
-0.148812
-0.144482
-0.140392
-0.136523
-0.132859
-0.129385
-0.126089
-0.12296
-0.11999
-0.117171
-0.114495
-0.111959
-0.109599
-0.489752
-0.469398
-0.458052
-0.440739
-0.421975
-0.400545
-0.378072
-0.355682
-0.334284
-0.314378
-0.296149
-0.279583
-0.264571
-0.250963
-0.238605
-0.227353
-0.217077
-0.207664
-0.199016
-0.191047
-0.183683
-0.176859
-0.170518
-0.164612
-0.159096
-0.153934
-0.149092
-0.144542
-0.140257
-0.136215
-0.132398
-0.128787
-0.125369
-0.12213
-0.119059
-0.116148
-0.113388
-0.110771
-0.108296
-0.105987
-0.495211
-0.474282
-0.462438
-0.44411
-0.424059
-0.401267
-0.377568
-0.35418
-0.332015
-0.311534
-0.292874
-0.275986
-0.260728
-0.246932
-0.234429
-0.223068
-0.21271
-0.20324
-0.194553
-0.186562
-0.17919
-0.172369
-0.166042
-0.160157
-0.15467
-0.149543
-0.144741
-0.140235
-0.135998
-0.132007
-0.128243
-0.124687
-0.121326
-0.118144
-0.115132
-0.11228
-0.109579
-0.10702
-0.104605
-0.102346
-0.500512
-0.479038
-0.466655
-0.44725
-0.425851
-0.401673
-0.376757
-0.352397
-0.329494
-0.308467
-0.289403
-0.272212
-0.256725
-0.242756
-0.230122
-0.218663
-0.208236
-0.198717
-0.190002
-0.181997
-0.174624
-0.167813
-0.161505
-0.155648
-0.150195
-0.145107
-0.140349
-0.13589
-0.131703
-0.127766
-0.124057
-0.120559
-0.117255
-0.114133
-0.111179
-0.108386
-0.105743
-0.103242
-0.100886
-0.098676
-0.505617
-0.483629
-0.470666
-0.450119
-0.42732
-0.401742
-0.375623
-0.35032
-0.326714
-0.30517
-0.285727
-0.268255
-0.252558
-0.23843
-0.22568
-0.214136
-0.20365
-0.194094
-0.185358
-0.177349
-0.169982
-0.163189
-0.156907
-0.151082
-0.145668
-0.140624
-0.135914
-0.131506
-0.127373
-0.123492
-0.119841
-0.116401
-0.113157
-0.110094
-0.1072
-0.104466
-0.101882
-0.0994386
-0.0971398
-0.0949772
-0.510487
-0.488021
-0.474431
-0.452683
-0.428438
-0.401452
-0.374152
-0.347941
-0.323666
-0.301637
-0.281841
-0.264109
-0.24822
-0.233951
-0.221098
-0.209482
-0.198949
-0.189367
-0.180621
-0.172615
-0.165264
-0.158495
-0.152245
-0.146459
-0.141089
-0.136093
-0.131435
-0.127082
-0.123007
-0.119184
-0.115593
-0.112213
-0.10903
-0.106028
-0.103195
-0.10052
-0.0979943
-0.095609
-0.0933668
-0.0912509
-0.515085
-0.492177
-0.477913
-0.454904
-0.429175
-0.400783
-0.37233
-0.345248
-0.320342
-0.297861
-0.277739
-0.25977
-0.243708
-0.229315
-0.216374
-0.204699
-0.194131
-0.184533
-0.175787
-0.167794
-0.160466
-0.153729
-0.147518
-0.141777
-0.136457
-0.131515
-0.126913
-0.122618
-0.118603
-0.114842
-0.111313
-0.107996
-0.104875
-0.101935
-0.099163
-0.0965488
-0.0940817
-0.0917542
-0.089568
-0.0874979
-0.51937
-0.496059
-0.481069
-0.456746
-0.429504
-0.399718
-0.370146
-0.342235
-0.316737
-0.293837
-0.273416
-0.255233
-0.239018
-0.224517
-0.211503
-0.199784
-0.189193
-0.179591
-0.170855
-0.162884
-0.155588
-0.148891
-0.142726
-0.137036
-0.131771
-0.126887
-0.122345
-0.118114
-0.114162
-0.110465
-0.107001
-0.103748
-0.100691
-0.0978148
-0.0951056
-0.0925524
-0.0901445
-0.0878751
-0.0857443
-0.0837195
-0.523271
-0.499599
-0.483835
-0.458156
-0.42939
-0.398235
-0.367589
-0.338895
-0.312846
-0.289561
-0.268869
-0.250495
-0.234147
-0.219556
-0.206485
-0.194736
-0.184135
-0.17454
-0.165825
-0.157885
-0.15063
-0.14398
-0.137868
-0.132235
-0.127031
-0.12221
-0.117733
-0.113568
-0.109684
-0.106054
-0.102657
-0.0994714
-0.0964805
-0.0936688
-0.091023
-0.0885317
-0.0861835
-0.0839725
-0.0818968
-0.0799172
-0.526688
-0.502707
-0.486134
-0.45908
-0.428797
-0.396315
-0.364646
-0.33522
-0.308663
-0.285027
-0.264094
-0.245553
-0.229092
-0.214428
-0.201317
-0.189551
-0.178954
-0.169378
-0.160694
-0.152796
-0.145589
-0.138995
-0.132943
-0.127374
-0.122235
-0.117483
-0.113076
-0.108981
-0.105168
-0.101609
-0.0982812
-0.095165
-0.092242
-0.0894968
-0.0869159
-0.0844873
-0.0821996
-0.0800474
-0.0780266
-0.0760926
-0.529753
-0.505495
-0.488049
-0.459568
-0.427754
-0.393966
-0.361316
-0.331203
-0.304179
-0.280227
-0.25908
-0.240397
-0.223845
-0.209128
-0.195993
-0.184227
-0.173647
-0.164101
-0.155461
-0.147613
-0.140465
-0.133933
-0.127949
-0.12245
-0.117384
-0.112705
-0.108373
-0.104353
-0.100614
-0.0971284
-0.0938739
-0.0908292
-0.0879763
-0.0852994
-0.0827848
-0.0804201
-0.0781936
-0.0761009
-0.0741353
-0.0722466
-0.532366
-0.507858
-0.489482
-0.459546
-0.426209
-0.391159
-0.357581
-0.326833
-0.299385
-0.275154
-0.253824
-0.235025
-0.218404
-0.203654
-0.190512
-0.17876
-0.168212
-0.15871
-0.150123
-0.142337
-0.135256
-0.128796
-0.122887
-0.117465
-0.112477
-0.107877
-0.103625
-0.0996831
-0.096022
-0.092614
-0.0894353
-0.0864648
-0.0836841
-0.0810773
-0.0786306
-0.076331
-0.0741668
-0.072135
-0.070225
-0.0683777
-0.53446
-0.509736
-0.490384
-0.458977
-0.42414
-0.387879
-0.353433
-0.322104
-0.294279
-0.269805
-0.248323
-0.229433
-0.212766
-0.198002
-0.184872
-0.173151
-0.162647
-0.153203
-0.144681
-0.136967
-0.129962
-0.123583
-0.117755
-0.112418
-0.107515
-0.102999
-0.0988305
-0.0949723
-0.0913933
-0.0880659
-0.084966
-0.0820723
-0.0793661
-0.0768315
-0.0744543
-0.0722212
-0.0701206
-0.0681511
-0.066298
-0.0644858
-0.535997
-0.511092
-0.490718
-0.457836
-0.42153
-0.384116
-0.348865
-0.31701
-0.288853
-0.264175
-0.242572
-0.223619
-0.206928
-0.192172
-0.179072
-0.167397
-0.156953
-0.147578
-0.139134
-0.131502
-0.124584
-0.118293
-0.112556
-0.107309
-0.102496
-0.0980711
-0.0939914
-0.090221
-0.086728
-0.0834847
-0.0804667
-0.0776524
-0.0750234
-0.0725629
-0.070257
-0.0680918
-0.0660564
-0.0641502
-0.0623508
-0.0605861
-0.53694
-0.51189
-0.490453
-0.456098
-0.418362
-0.37986
-0.343868
-0.311545
-0.283104
-0.25826
-0.236569
-0.217579
-0.200889
-0.186161
-0.173109
-0.161498
-0.151129
-0.141837
-0.133482
-0.125943
-0.119121
-0.112927
-0.107288
-0.102138
-0.0974227
-0.0930934
-0.0891079
-0.0854297
-0.0820268
-0.0788712
-0.0759381
-0.073206
-0.0706571
-0.0682728
-0.0660399
-0.0639442
-0.0619755
-0.0601333
-0.0583878
-0.0566731
-0.537253
-0.512091
-0.489554
-0.453739
-0.414623
-0.375102
-0.338438
-0.305706
-0.277028
-0.252058
-0.23031
-0.211311
-0.194647
-0.179968
-0.166983
-0.155452
-0.145174
-0.135979
-0.127724
-0.12029
-0.113573
-0.107485
-0.101952
-0.0969066
-0.0922946
-0.0880667
-0.0841806
-0.0805991
-0.0772904
-0.0742263
-0.0713816
-0.0687348
-0.0662675
-0.063962
-0.0618042
-0.0597799
-0.0578794
-0.0561022
-0.0544119
-0.0527471
-0.5369
-0.511661
-0.487991
-0.450739
-0.410301
-0.369835
-0.332569
-0.299487
-0.270621
-0.245564
-0.223793
-0.204815
-0.1882
-0.173592
-0.160695
-0.149261
-0.139088
-0.130003
-0.121862
-0.114542
-0.107941
-0.101968
-0.0965479
-0.0916151
-0.0871127
-0.082992
-0.0792106
-0.0757305
-0.0725201
-0.0695509
-0.0667979
-0.0642394
-0.0618565
-0.059632
-0.0575514
-0.0556002
-0.0537695
-0.0520589
-0.0504249
-0.0488101
-0.535846
-0.510563
-0.485736
-0.44708
-0.405385
-0.364052
-0.326258
-0.292886
-0.263882
-0.238777
-0.217018
-0.198088
-0.181549
-0.167034
-0.154243
-0.142924
-0.132872
-0.12391
-0.115895
-0.108702
-0.102225
-0.0963763
-0.0910774
-0.0862647
-0.0818782
-0.0778704
-0.0741984
-0.0708245
-0.0677166
-0.0648462
-0.0621882
-0.059721
-0.0574252
-0.0552842
-0.0532829
-0.0514067
-0.0496476
-0.048005
-0.0464284
-0.0448644
-0.534061
-0.508766
-0.482763
-0.442746
-0.399866
-0.35775
-0.319501
-0.285901
-0.256807
-0.231697
-0.209982
-0.191131
-0.174692
-0.160293
-0.147628
-0.136442
-0.126525
-0.117702
-0.109825
-0.102769
-0.0964271
-0.0907117
-0.0855424
-0.0808554
-0.0765917
-0.0727027
-0.0691455
-0.0658826
-0.0628813
-0.0601135
-0.057554
-0.055181
-0.0529752
-0.05092
-0.0490002
-0.047201
-0.0455155
-0.0439424
-0.0424241
-0.0409123
-0.531514
-0.506239
-0.479051
-0.437723
-0.393738
-0.350924
-0.312296
-0.278531
-0.249397
-0.224321
-0.202686
-0.183943
-0.16763
-0.15337
-0.14085
-0.129814
-0.12005
-0.111379
-0.103652
-0.0967448
-0.0905485
-0.0849742
-0.079943
-0.0753892
-0.0712548
-0.0674904
-0.0640533
-0.0609059
-0.0580156
-0.0553542
-0.0528965
-0.0506209
-0.048508
-0.0465411
-0.0447049
-0.0429849
-0.0413748
-0.039873
-0.0384139
-0.036956
-0.528178
-0.502956
-0.474579
-0.432001
-0.386997
-0.343574
-0.304643
-0.270773
-0.24165
-0.21665
-0.19513
-0.176524
-0.160365
-0.146265
-0.133911
-0.123044
-0.113446
-0.104944
-0.0973789
-0.0906308
-0.08459
-0.0791661
-0.0742807
-0.0698675
-0.0658688
-0.0622349
-0.0589231
-0.0558959
-0.0531209
-0.0505697
-0.0482174
-0.0460422
-0.044025
-0.042149
-0.0403989
-0.03876
-0.0372274
-0.0357985
-0.0343998
-0.0329975
-0.52403
-0.49889
-0.46933
-0.425571
-0.379638
-0.335697
-0.296541
-0.26263
-0.233568
-0.208685
-0.187314
-0.168877
-0.152896
-0.138981
-0.126813
-0.116132
-0.106718
-0.0983949
-0.0910066
-0.0844289
-0.0785534
-0.0732889
-0.0685574
-0.064292
-0.0604354
-0.0569379
-0.0537566
-0.0508545
-0.0481989
-0.0457618
-0.0435183
-0.0414467
-0.039528
-0.0377455
-0.0360837
-0.0345282
-0.0330752
-0.0317209
-0.0303838
-0.0290391
-0.519047
-0.49402
-0.463292
-0.418428
-0.371662
-0.327296
-0.287992
-0.254102
-0.225151
-0.200428
-0.179241
-0.161002
-0.145226
-0.131518
-0.119559
-0.109081
-0.0998668
-0.0917367
-0.0845369
-0.0781409
-0.0724406
-0.0673446
-0.0627748
-0.0586646
-0.0549564
-0.051601
-0.0485556
-0.0457831
-0.0432513
-0.0409321
-0.0388009
-0.0368361
-0.0350187
-0.0333323
-0.0317612
-0.0302913
-0.0289201
-0.0276421
-0.0263679
-0.0250829
-0.513211
-0.488327
-0.456454
-0.410568
-0.363069
-0.318372
-0.278998
-0.245191
-0.216401
-0.191879
-0.170912
-0.152902
-0.137358
-0.123881
-0.112148
-0.101892
-0.0928935
-0.0849712
-0.0779722
-0.0717691
-0.0662539
-0.0613352
-0.0569351
-0.0529871
-0.0494339
-0.0462263
-0.0433219
-0.0406838
-0.03828
-0.0360826
-0.0340671
-0.0322121
-0.030499
-0.0289114
-0.0274334
-0.0260513
-0.024764
-0.023564
-0.0223542
-0.0211311
-0.506507
-0.481795
-0.448808
-0.40199
-0.353861
-0.308928
-0.269562
-0.2359
-0.207322
-0.183042
-0.162331
-0.144581
-0.129295
-0.116072
-0.104586
-0.0945688
-0.0858014
-0.0781011
-0.0713152
-0.065316
-0.0599957
-0.0552631
-0.0510406
-0.0472618
-0.0438699
-0.0408159
-0.0380577
-0.0355586
-0.033287
-0.0312151
-0.0293188
-0.0275769
-0.0259709
-0.0244846
-0.0231021
-0.0218101
-0.0206089
-0.0194887
-0.0183446
-0.0171858
-0.498922
-0.474412
-0.44035
-0.392696
-0.344043
-0.298969
-0.259688
-0.226234
-0.197917
-0.17392
-0.153502
-0.136042
-0.12104
-0.108093
-0.096874
-0.0871144
-0.0785937
-0.0711293
-0.0645686
-0.0587843
-0.0536686
-0.0491309
-0.0450937
-0.0414912
-0.0382668
-0.035372
-0.032765
-0.0304096
-0.0282742
-0.0263317
-0.024558
-0.0229322
-0.0214362
-0.0200538
-0.0187692
-0.0175697
-0.0164567
-0.0154181
-0.0143413
-0.0132492
-0.490446
-0.466167
-0.43108
-0.38269
-0.33362
-0.288502
-0.249383
-0.216196
-0.18819
-0.164522
-0.144429
-0.127288
-0.112596
-0.0999489
-0.0890172
-0.0795323
-0.0712738
-0.0640589
-0.0577357
-0.052177
-0.0472756
-0.0429413
-0.0390971
-0.0356777
-0.032627
-0.029897
-0.0274463
-0.0252389
-0.023244
-0.0214345
-0.0197868
-0.0182803
-0.0168971
-0.0156213
-0.014437
-0.0133322
-0.0123095
-0.0113543
-0.0103464
-0.00932333
-0.481074
-0.457056
-0.420998
-0.371978
-0.322601
-0.277534
-0.238652
-0.205793
-0.17815
-0.154849
-0.135116
-0.118324
-0.103969
-0.091644
-0.0810193
-0.0718266
-0.0638454
-0.0568937
-0.0508199
-0.0454974
-0.0408197
-0.0366972
-0.0330536
-0.0298241
-0.0269532
-0.0243934
-0.0221039
-0.0200491
-0.0181987
-0.0165258
-0.0150075
-0.0136232
-0.0123556
-0.0111889
-0.0101073
-0.00909948
-0.0081694
-0.00729921
-0.00636181
-0.00541035
-0.470802
-0.447075
-0.41011
-0.360568
-0.310995
-0.266073
-0.227503
-0.195033
-0.167803
-0.144907
-0.125569
-0.109157
-0.0951639
-0.083183
-0.0728849
-0.0640015
-0.0563128
-0.0496375
-0.0438248
-0.038749
-0.0343044
-0.0304019
-0.0269663
-0.0239333
-0.0212481
-0.018864
-0.0167404
-0.0148426
-0.0131406
-0.011608
-0.0102222
-0.00896331
-0.00781405
-0.00675893
-0.00578234
-0.00487378
-0.00403836
-0.00325496
-0.00238973
-0.00151234
-0.45963
-0.436226
-0.398424
-0.348472