/*--------------------------------*- C++ -*----------------------------------*\
  =========                 |
  \\      /  F ield         | OpenFOAM: The Open Source CFD Toolbox
   \\    /   O peration     | Website:  https://openfoam.org
    \\  /    A nd           | Version:  7
     \\/     M anipulation  |
\*---------------------------------------------------------------------------*/
FoamFile
{
    version     2.0;
    format      ascii;
    class       surfaceScalarField;
    location    "10";
    object      phi;
}
// * * * * * * * * * * * * * * * * * * * * * * * * * * * * * * * * * * * * * //

dimensions      [0 3 -1 0 0 0 0];

internalField   nonuniform List<scalar> 
47900
(
-5.7819e-06
5.78223e-06
-3.30807e-10
-1.91828e-05
1.34016e-05
-7.38277e-10
-3.81373e-05
1.89555e-05
-9.82853e-10
-6.11867e-05
2.30506e-05
-1.11234e-09
-8.74141e-05
2.62285e-05
-1.16758e-09
-0.000116237
2.88236e-05
-1.17724e-09
-0.000147319
3.10837e-05
-1.16035e-09
-0.000180496
3.31779e-05
-1.1277e-09
-0.000215717
3.52226e-05
-1.0839e-09
-0.00025301
3.7294e-05
-1.02962e-09
-0.000292449
3.94399e-05
-9.63372e-10
-0.000334136
4.16877e-05
-8.82774e-10
-0.000378186
4.40506e-05
-7.84678e-10
4.65317e-05
-6.66573e-10
-5.73988e-06
1.15221e-05
-1.90545e-05
2.67163e-05
-3.78908e-05
3.77917e-05
-6.07954e-05
4.59551e-05
-8.68509e-05
5.22841e-05
-0.000115472
5.74444e-05
-0.000146318
6.19299e-05
-0.000179218
6.60776e-05
-0.000214114
7.01191e-05
-0.000251026
7.42063e-05
-0.00029002
7.84338e-05
-0.000331188
8.28558e-05
-0.000374636
8.74981e-05
9.23655e-05
-5.65829e-06
1.71804e-05
-1.88029e-05
3.98609e-05
-3.74051e-05
5.63939e-05
-6.00221e-05
6.85721e-05
-8.57363e-05
7.79983e-05
-0.000113956
8.56643e-05
-0.000144332
9.23062e-05
-0.000176681
9.84264e-05
-0.000210932
0.00010437
-0.000247088
0.000110362
-0.000285199
0.000116544
-0.000325338
0.000122995
-0.00036759
0.000129751
0.000136817
-5.53837e-06
2.27188e-05
-1.84315e-05
5.2754e-05
-3.66866e-05
7.4649e-05
-5.88767e-05
9.07622e-05
-8.40838e-05
0.000103205
-0.000111708
0.000113289
-0.000141386
0.000121984
-0.000172917
0.000129957
-0.00020621
0.000137662
-0.000241244
0.000145397
-0.000278046
0.000153346
-0.000316661
0.00016161
-0.000357146
0.000170236
0.000179227
-5.38199e-06
2.81008e-05
-1.79457e-05
6.53177e-05
-3.57451e-05
9.24484e-05
-5.73738e-05
0.000112391
-8.19137e-05
0.000127745
-0.000108754
0.000140129
-0.000137514
0.000150745
-0.00016797
0.000160412
-0.000200003
0.000169696
-0.000233566
0.00017896
-0.000268652
0.000188431
-0.000305272
0.000198231
-0.000343446
0.00020841
0.000218969
-5.19161e-06
3.32924e-05
-1.73525e-05
7.74786e-05
-3.45932e-05
0.000109689
-5.55326e-05
0.00013333
-7.92525e-05
0.000151465
-0.00010513
0.000166006
-0.000132761
0.000178376
-0.000161897
0.000189548
-0.000192386
0.000200185
-0.000224147
0.000210721
-0.000257133
0.000221417
-0.000291317
0.000232414
-0.000326673
0.000243767
-0.000363169
0.000255465
0.00026745
-4.97019e-06
3.82626e-05
-1.66604e-05
8.91688e-05
-3.32464e-05
0.000126275
-5.33764e-05
0.00015346
-7.61324e-05
0.000174221
-0.000100877
0.000190751
-0.000127183
0.000204682
-0.000154768
0.000217133
-0.000183448
0.000228865
-0.000213099
0.000240372
-0.000243632
0.00025195
-0.000274973
0.000263756
-0.000307048
0.000275842
-0.000339772
0.000288189
0.000300717
-4.72117e-06
4.29837e-05
-1.58792e-05
0.000100327
-3.17225e-05
0.000142118
-5.09322e-05
0.00017267
-7.2591e-05
0.00019588
-9.60459e-05
0.000214206
-0.000120843
0.00022948
-0.000146666
0.000242956
-0.000173291
0.00025549
-0.000200551
0.000267632
-0.000228309
0.000279709
-0.000256443
0.000291889
-0.000284824
0.000304223
-0.000313311
0.000316675
0.000329146
-4.44838e-06
4.74321e-05
-1.502e-05
0.000110899
-3.00416e-05
0.00015714
-4.82303e-05
0.000190859
-6.86702e-05
0.00021632
-9.0692e-05
0.000236228
-0.000113814
0.000252601
-0.000137682
0.000266824
-0.000162031
0.000279839
-0.000186648
0.000292248
-0.000211347
0.000304408
-0.000235951
0.000316493
-0.000260278
0.00032855
-0.000284128
0.000340525
0.000352295
-4.15599e-06
5.15881e-05
-1.40947e-05
0.000120837
-2.82254e-05
0.000171271
-4.5304e-05
0.000207937
-6.44162e-05
0.000235432
-8.48761e-05
0.000256688
-0.000106172
0.000273897
-0.000127914
0.000288566
-0.000149792
0.000301717
-0.000171545
0.000314001
-0.000192937
0.0003258
-0.000213737
0.000337293
-0.000233706
0.000348519
-0.000252588
0.000359407
0.000369805
-3.84839e-06
5.54365e-05
-1.3116e-05
0.000130105
-2.62974e-05
0.000184452
-4.21886e-05
0.000223829
-5.98778e-05
0.000253121
-7.86629e-05
0.000275473
-9.80025e-05
0.000293237
-0.000117468
0.000308031
-0.000136706
0.000320954
-0.000155407
0.000332702
-0.000173283
0.000343676
-0.00019005
0.000354061
-0.000205415
0.000363883
-0.000219063
0.000373055
0.000381397
-3.53015e-06
5.89666e-05
-1.20972e-05
0.000138672
-2.42818e-05
0.000196637
-3.8921e-05
0.000238468
-5.51065e-05
0.000269307
-7.21201e-05
0.000292486
-8.93911e-05
0.000310508
-0.000106453
0.000325093
-0.000122909
0.00033741
-0.000138401
0.000348194
-0.000152591
0.000357867
-0.000165144
0.000366613
-0.000175712
0.000374451
-0.000183928
0.000381272
0.000386869
-3.20588e-06
6.21725e-05
-1.10518e-05
0.000146518
-2.22033e-05
0.000207788
-3.55392e-05
0.000251804
-5.01547e-05
0.000283922
-6.53168e-05
0.000307648
-8.04264e-05
0.000325618
-9.498e-05
0.000339647
-0.000108538
0.000350968
-0.000120696
0.000360353
-0.000131069
0.000368239
-0.000139269
0.000374814
-0.000144901
0.000380083
-0.000147547
0.000383918
0.000386088
-2.88021e-06
6.50527e-05
-9.99323e-06
0.000153631
-2.0087e-05
0.000217882
-3.20811e-05
0.000263798
-4.50754e-05
0.000296917
-5.83227e-05
0.000320896
-7.11969e-05
0.000338492
-8.31592e-05
0.000351609
-9.37288e-05
0.000361537
-0.000102458
0.000369082
-0.000108915
0.000374696
-0.000112666
0.000378565
-0.000113267
0.000380684
-0.000110258
0.000380908
0.000378981
-2.55762e-06
6.76103e-05
-8.93475e-06
0.000160008
-1.79574e-05
0.000226905
-2.85844e-05
0.000274425
-3.99206e-05
0.000308253
-5.1206e-05
0.000332181
-6.17891e-05
0.000349075
-7.1098e-05
0.000360918
-7.86131e-05
0.000369052
-8.38456e-05
0.000374315
-8.63193e-05
0.00037717
-8.55579e-05
0.000377803
-8.10749e-05
0.000376201
-7.23671e-05
0.0003722
0.000365524
-2.24244e-06
6.98528e-05
-7.88912e-06
0.000165655
-1.58381e-05
0.000234854
-2.50853e-05
0.000283672
-3.47405e-05
0.000317908
-4.40323e-05
0.000341473
-5.22858e-05
0.000357328
-5.88979e-05
0.00036753
-6.3313e-05
0.000373467
-6.50034e-05
0.000376005
-6.34527e-05
0.000375619
-5.81442e-05
0.000372495
-4.8552e-05
0.000366609
-3.4135e-05
0.000357783
-1.43337e-05
0.000345723
0.000330046
-1.93869e-06
7.17915e-05
-6.86833e-06
0.000170584
-1.37516e-05
0.000241737
-2.16182e-05
0.000291539
-2.95827e-05
0.000325872
-3.68634e-05
0.000348754
-4.27639e-05
0.000363229
-4.66524e-05
0.000371419
-4.79396e-05
0.000374755
-4.60615e-05
0.000374127
-4.0464e-05
0.000370022
-3.05927e-05
0.000362624
-1.58846e-05
0.000351901
4.23664e-06
0.000337662
3.03642e-05
0.000319595
0.000297301
-1.65005e-06
7.34415e-05
-5.88338e-06
0.000174818
-1.17184e-05
0.000247572
-1.82144e-05
0.000298035
-2.44903e-05
0.000332148
-2.97551e-05
0.000354018
-3.32926e-05
0.000366766
-3.4444e-05
0.00037257
-3.25887e-05
0.000372899
-2.71284e-05
0.000368667
-1.74732e-05
0.000360366
-3.03234e-06
0.000348183
1.67928e-05
0.000332076
4.26138e-05
0.000311841
7.50576e-05
0.000287152
0.000257591
-1.37981e-06
7.48213e-05
-4.94407e-06
0.000178382
-9.7568e-06
0.000252385
-1.4902e-05
0.00030318
-1.95019e-05
0.000336748
-2.27564e-05
0.000357273
-2.3931e-05
0.000367941
-2.23416e-05
0.000370981
-1.73377e-05
0.000367896
-8.28756e-06
0.000359617
5.43371e-06
0.000346645
2.4453e-05
0.000329164
4.94059e-05
0.000307123
8.09405e-05
0.000280306
0.000119721
0.000248372
0.000210885
-1.13074e-06
7.59521e-05
-4.05875e-06
0.00018131
-7.88249e-06
0.000256208
-1.17048e-05
0.000307002
-1.46495e-05
0.000339693
-1.59077e-05
0.000358531
-1.47267e-05
0.00036676
-1.03982e-05
0.000366652
-2.24199e-06
0.000359739
1.0407e-05
0.000346968
2.82096e-05
0.000328842
5.18311e-05
0.000305542
8.19467e-05
0.000277007
0.000119246
0.000243007
0.000164435
0.000203182
0.000157082
-9.0508e-07
7.68571e-05
-3.23417e-06
0.000183639
-6.10807e-06
0.000259082
-8.64184e-06
0.000309536
-9.95846e-06
0.00034101
-9.23923e-06
0.000357812
-5.71354e-06
0.000363234
1.35195e-06
0.000359587
1.26678e-05
0.000348423
2.89343e-05
0.000330701
5.08512e-05
0.000306925
7.91262e-05
0.000277267
0.00011448
0.000241654
0.00015765
0.000199837
0.000209393
0.000151439
9.59876e-05
-7.04505e-07
7.75616e-05
-2.47533e-06
0.00018541
-4.44279e-06
0.00026105
-5.72663e-06
0.00031082
-5.44592e-06
0.000340729
-2.77035e-06
0.000355136
3.09005e-06
0.000357374
1.28952e-05
0.000349781
2.73888e-05
0.00033393
4.73098e-05
0.00031078
7.34021e-05
0.000280833
0.000106422
0.000244247
0.000147144
0.000200932
0.000196363
0.000150618
0.000254897
9.29053e-05
0.000323584
2.73005e-05
-4.67577e-05
-5.30052e-07
7.80917e-05
-1.78527e-06
0.000186665
-2.89217e-06
0.000262157
-2.96681e-06
0.000310894
-1.12037e-06
0.000338882
3.492e-06
0.000350524
1.16824e-05
0.000349184
2.42407e-05
0.000337223
4.19478e-05
0.000316223
6.55876e-05
0.000287141
9.59554e-05
0.000250465
0.000133865
0.000206337
0.000180154
0.000154643
0.000235686
9.50867e-05
0.000301346
2.72448e-05
0.000378044
-4.93972e-05
-0.000135413
-3.82112e-07
7.84738e-05
-1.16501e-06
0.000187448
-1.45787e-06
0.000262449
-3.62849e-07
0.000309799
3.01907e-06
0.0003355
9.55409e-06
0.000343989
2.00798e-05
0.000338658
3.54212e-05
0.000321882
5.64032e-05
0.000295241
8.3862e-05
0.000259682
0.000118654
0.000215673
0.000161661
0.00016333
0.000213795
0.000102509
0.000275995
3.2887e-05
0.000349224
-4.59844e-05
0.00043446
-0.000134634
-0.000233632
-2.60401e-07
7.87342e-05
-6.13356e-07
0.000187801
-1.37573e-07
0.000261974
2.0878e-06
0.000307574
6.983e-06
0.000330605
1.5436e-05
0.000335536
2.83176e-05
0.000325776
4.64947e-05
0.000303705
7.0845e-05
0.000270891
0.000102267
0.000228259
0.000141689
0.000176251
0.000190073
0.000114946
0.000248412
4.41694e-05
0.000317731
-3.64318e-05
0.000399069
-0.000127323
0.000493465
-0.000229029
-0.000342094
-1.63992e-07
7.88982e-05
-1.24928e-07
0.000187762
1.07558e-06
0.000260773
4.39987e-06
0.00030425
1.07923e-05
0.000324213
2.11721e-05
0.000325156
3.64499e-05
0.000310498
5.75441e-05
0.00028261
8.53951e-05
0.00024304
0.000120976
0.000192679
0.000165297
0.000131929
0.000219411
6.08327e-05
0.000284402
-2.08214e-05
0.000361377
-0.000113407
0.000451443
-0.000217389
0.000555676
-0.000333262
0.000675074
-0.000461491
-0.000602456
-9.14252e-08
7.89896e-05
2.96818e-07
0.000187374
2.19172e-06
0.000258878
6.59145e-06
0.00029985
1.4478e-05
0.000316326
2.68107e-05
0.000312824
4.45501e-05
0.000292759
6.86765e-05
0.000258484
0.000100205
0.000211511
0.000140195
0.000152689
0.000189752
8.23722e-05
0.000250025
5.60593e-07
0.000322188
-9.29853e-05
0.000407425
-0.000198644
0.000506886
-0.000316849
0.000621639
-0.000448015
0.000752611
-0.000592463
-0.000750353
-4.03571e-08
7.903e-05
6.66679e-07
0.000186667
3.22596e-06
0.000256319
8.68801e-06
0.000294388
1.80808e-05
0.000306933
3.24141e-05
0.00029849
5.27095e-05
0.000272464
8.00218e-05
0.000231172
0.000115454
0.000176079
0.000160163
0.00010798
0.000215357
2.71781e-05
0.000282283
-6.63662e-05
0.000362203
-0.000172905
0.000456348
-0.000292789
0.000565871
-0.000426372
0.000691771
-0.000573915
0.000834811
-0.000735504
-0.000910969
-8.09652e-09
7.90381e-05
9.93096e-07
0.000185665
4.19692e-06
0.000253115
1.07215e-05
0.000287863
2.1651e-05
0.000296004
3.80573e-05
0.000282084
6.10361e-05
0.000249485
9.17298e-05
0.000200478
0.000131341
0.000136467
0.000181136
5.81856e-05
0.000242429
-3.41149e-05
0.000316561
-0.000140498
0.000404855
-0.000261198
0.000508555
-0.00039649
0.000628754
-0.00054657
0.000766292
-0.000711453
0.000921663
-0.000890874
0.0010949
-0.00108421
-0.00129042
1.06937e-08
7.90274e-05
1.28621e-06
0.00018439
5.12667e-06
0.000249275
1.27295e-05
0.00028026
2.52472e-05
0.000283486
4.38271e-05
0.000263504
6.96523e-05
0.00022366
0.000103967
0.000166164
0.000148085
9.23489e-05
0.000203386
2.88452e-06
0.000271289
-0.000102018
0.000353211
-0.00022242
0.000450501
-0.000358488
0.000564357
-0.000510346
0.000695725
-0.000677938
0.000845179
-0.000860908
0.00101282
-0.00105851
0.00119815
-0.00126954
-0.0014923
1.6623e-08
7.90108e-05
1.5582e-06
0.000182848
6.04047e-06
0.000244792
1.4755e-05
0.000271546
2.89358e-05
0.000269305
4.98198e-05
0.00024262
7.86919e-05
0.000194788
0.00011691
0.000127945
0.00016591
4.33494e-05
0.000227184
-5.83892e-05
0.000302242
-0.000177076
0.000392545
-0.000312724
0.000499416
-0.000465359
0.000623925
-0.000634855
0.000766764
-0.000820777
0.000928122
-0.00102227
0.00110757
-0.00123796
0.00130396
-0.00146594
-0.00170377
1.60655e-08
7.89947e-05
1.82284e-06
0.000181042
6.96627e-06
0.000239649
1.68452e-05
0.000261667
3.27892e-05
0.000253361
5.61393e-05
0.00021927
8.82967e-05
0.00016263
0.000130744
8.54974e-05
0.000185041
-1.09475e-05
0.000252787
-0.000126135
0.000335556
-0.000259846
0.000434807
-0.000411975
0.000551759
-0.000582311
0.000687253
-0.000770349
0.000841611
-0.000975134
0.0010145
-0.00119515
0.00120484
-0.00142829
0.00141076
-0.00167185
0.00162963
-0.00192264
-0.00217712
1.36026e-08
7.89811e-05
2.09491e-06
0.00017896
7.93412e-06
0.00023381
1.90506e-05
0.000250551
3.6884e-05
0.000235528
6.28945e-05
0.000193259
9.86121e-05
0.000126913
0.000145652
3.84571e-05
0.000205695
-7.09905e-05
0.000280428
-0.000200867
0.00037145
-0.000350868
0.000480149
-0.000520674
0.000607547
-0.000709709
0.00075414
-0.000916942
0.000919745
-0.00114074
0.00110339
-0.0013788
0.00130324
-0.00162815
0.00151666
-0.00188528
0.0017403
-0.00214627
-0.0024071
1.36653e-08
7.89674e-05
2.38992e-06
0.000176584
8.97554e-06
0.000227224
2.1424e-05
0.000238102
4.12998e-05
0.000215652
7.01963e-05
0.000164363
0.000109783
8.7326e-05
0.00016181
-1.35701e-05
0.000228068
-0.000137248
0.000310298
-0.000283098
0.000410068
-0.000450638
0.000528609
-0.000639215
0.000666634
-0.000847734
0.000824164
-0.00107447
0.00100039
-0.00131696
0.00119358
-0.00157199
0.00140112
-0.0018357
0.00161963
-0.00210378
0.00184511
-0.00237176
-0.00263531
2.05605e-08
7.89469e-05
2.72376e-06
0.000173881
1.01228e-05
0.000219825
2.40192e-05
0.000224206
4.61165e-05
0.000193555
7.81541e-05
0.000132325
0.000121948
4.35323e-05
0.000179379
-7.10008e-05
0.000252323
-0.000210193
0.000342533
-0.000373308
0.000451468
-0.000559573
0.000580096
-0.000767843
0.000728698
-0.000996335
0.000896688
-0.00124246
0.00108251
-0.00150279
0.00128364
-0.00177312
0.00149667
-0.00204873
0.00171755
-0.00232465
0.00194186
-0.00259607
0.00216519
-0.00285865
-0.00310883
3.90032e-08
7.89079e-05
3.1124e-06
0.000170807
1.14083e-05
0.000211529
2.68897e-05
0.000208724
5.14126e-05
0.000169032
8.68731e-05
9.68648e-05
0.000135235
-4.82961e-06
0.000198497
-0.000134263
0.000278587
-0.000290283
0.000377204
-0.000471924
0.000495604
-0.000677972
0.000634375
-0.000906615
0.000793233
-0.00115519
0.000970867
-0.0014201
0.0011649
-0.00169682
0.00137199
-0.00198021
0.00158802
-0.00226475
0.00180844
-0.00254507
0.00202863
-0.00281626
0.00224432
-0.00307433
-0.00331636
7.40304e-08
7.88338e-05
3.57155e-06
0.00016731
1.28637e-05
0.000202237
3.00874e-05
0.000191501
5.72631e-05
0.000141856
9.64502e-05
5.76776e-05
0.000149757
-5.8136e-05
0.000219275
-0.000203781
0.000306936
-0.000377945
0.000414302
-0.000579291
0.000542319
-0.000805989
0.000691065
-0.00105536
0.000859562
-0.00132369
0.00104568
-0.00160622
0.0012462
-0.00189734
0.00145699
-0.002191
0.00167338
-0.00248115
0.00189055
-0.00276223
0.00210395
-0.00302966
0.00230968
-0.00328006
0.00250474
-0.00351142
-0.00372306
1.30442e-07
7.87034e-05
4.11633e-06
0.000163324
1.45195e-05
0.000191834
3.36614e-05
0.000172359
6.37371e-05
0.000111781
0.000106972
1.44429e-05
0.000165605
-0.000116769
0.000241787
-0.000279963
0.000337387
-0.000473545
0.000453735
-0.000695639
0.000591339
-0.000943593
0.00074964
-0.00121366
0.000926855
-0.0015009
0.00111998
-0.00179934
0.00132496
-0.00210232
0.00153703
-0.00240307
0.00175115
-0.00269527
0.00196249
-0.00297357
0.00216683
-0.003234
0.00236087
-0.00347411
0.00254243
-0.00369297
-0.00389104
2.12573e-07
7.84908e-05
4.76084e-06
0.000158776
1.64038e-05
0.000180191
3.7657e-05
0.000151106
7.08964e-05
7.85413e-05
0.00011851
-3.31705e-05
0.000182846
-0.000181105
0.000266066
-0.000363183
0.000369895
-0.000577374
0.000495316
-0.00082106
0.000642274
-0.00109055
0.000809442
-0.00138083
0.000994157
-0.00168562
0.00119253
-0.00199771
0.00139977
-0.00230956
0.00161065
-0.00261395
0.00182002
-0.00290463
0.00202328
-0.00317684
0.0022168
-0.00342752
0.00239806
-0.00365536
0.00256572
-0.00386064
0.00271955
-0.00404487
-0.00421045
3.24185e-07
7.81666e-05
5.51784e-06
0.000153582
1.85423e-05
0.000167166
4.2114e-05
0.000127534
7.8793e-05
4.18623e-05
0.00013112
-8.54971e-05
0.00020152
-0.000251505
0.000292101
-0.000453764
0.000404347
-0.000689619
0.000538772
-0.000955485
0.000694622
-0.0012464
0.000869705
-0.00155591
0.00106043
-0.00187635
0.00126209
-0.00219937
0.0014693
-0.00251678
0.00167661
-0.00282125
0.001879
-0.00310703
0.00207241
-0.00337024
0.0022539
-0.00360902
0.00242186
-0.00382331
0.0025758
-0.00401458
0.00271624
-0.00418532
-0.00433861
5.31075e-07
7.76356e-05
6.48333e-06
0.00014763
2.10306e-05
0.000152619
4.71023e-05
0.000101462
8.74463e-05
1.51828e-06
0.000144741
-0.000142792
0.000221448
-0.000328213
0.000319547
-0.000551862
0.000440169
-0.000810241
0.000583233
-0.00109855
0.000747169
-0.00141034
0.000928849
-0.00173759
0.00112378
-0.00207128
0.00132654
-0.00240213
0.00153138
-0.00272162
0.00173287
-0.00302274
0.00192641
-0.00330057
0.0021086
-0.00355244
0.0022774
-0.00377782
0.00243205
-0.00397796
0.00257287
-0.0041554
0.002701
-0.00431344
0.00281808
-0.00445569
-0.00458567
7.12896e-07
7.69227e-05
7.49645e-06
0.000140846
2.37345e-05
0.000136381
5.25639e-05
7.26328e-05
9.69078e-05
-4.28256e-05
0.000159552
-0.000205436
0.000242933
-0.000411594
0.000348804
-0.000657734
0.000477822
-0.00093926
0.000629175
-0.0012499
0.000800372
-0.00158153
0.000987322
-0.00192454
0.00118469
-0.00226865
0.00138653
-0.00260397
0.00158697
-0.00292205
0.00178083
-0.00321661
0.00196417
-0.0034839
0.00213441
-0.00372268
0.0022904
-0.00393381
0.00243221
-0.00411977
0.00256084
-0.00428403
0.00267789
-0.00443049
0.00278526
-0.00456306
-0.0046853
9.36141e-07
7.59865e-05
8.65548e-06
0.000133127
2.6753e-05
0.000118284
5.85714e-05
4.08143e-05
0.000107196
-9.14497e-05
0.00017548
-0.00027372
0.000265766
-0.000501879
0.000379475
-0.000771443
0.000516657
-0.00107644
0.000675646
-0.00140889
0.000852966
-0.00175885
0.00104358
-0.00211516
0.00124146
-0.00246653
0.00144034
-0.00280285
0.00163447
-0.00311618
0.00181922
-0.00340136
0.0019914
-0.00365608
0.00214936
-0.00388063
0.00229281
-0.00407726
0.00242254
-0.0042495
0.00254008
-0.00440157
0.00264734
-0.00453776
0.00274633
-0.00466206
0.00283897
-0.00477794
-0.00488821
1.20264e-06
7.47839e-05
9.96694e-06
0.000124363
3.00977e-05
9.81528e-05
6.5138e-05
5.77411e-06
0.000118313
-0.000144625
0.000192499
-0.000347906
0.000289854
-0.000599235
0.00041135
-0.000892939
0.0005563
-0.00122139
0.000722079
-0.00157467
0.000904198
-0.00194097
0.00109676
-0.00230772
0.00129322
-0.00266299
0.00148726
-0.00299689
0.0016735
-0.00330242
0.00184803
-0.00357588
0.00200855
-0.0038166
0.0021543
-0.00402639
0.00228579
-0.00420875
0.00240441
-0.00436812
0.00251204
-0.0045092
0.00261077
-0.00463648
0.0027026
-0.00475389
0.00278931
-0.00486465
0.00287239
-0.00497128
-0.00507564
1.51382e-06
7.32701e-05
1.14358e-05
0.000114441
3.37767e-05
7.58119e-05
7.22694e-05
-3.27185e-05
0.000130251
-0.000202606
0.000210557
-0.000428212
0.000315067
-0.000703745
0.000444174
-0.00102205
0.000596325
-0.00137354
0.000767868
-0.00174621
0.000953319
-0.00212642
0.00114606
-0.00250046
0.00133927
-0.0028562
0.00152681
-0.00318443
0.00170392
-0.00347953
0.00186752
-0.00373949
0.00201626
-0.00396534
0.00215022
-0.00416035
0.00227056
-0.00432909
0.00237913
-0.00447668
0.00247803
-0.00460811
0.00256939
-0.00472784
0.00265511
-0.00483961
0.0027368
-0.00494634
0.00281574
-0.00505022
-0.00515278
1.87069e-06
7.13994e-05
1.30652e-05
0.000103246
3.77941e-05
5.1083e-05
7.99638e-05
-7.48882e-05
0.000142985
-0.000265628
0.000229581
-0.000514807
0.000341241
-0.000815405
0.000477645
-0.00115845
0.000636269
-0.00153217
0.000812389
-0.00192233
0.000999612
-0.00231365
0.00119079
-0.00269164
0.00137906
-0.00304447
0.00155873
-0.0033641
0.00172582
-0.00364662
0.00187818
-0.00389185
0.00201534
-0.0041025
0.00213815
-0.00428315
0.00224829
-0.00443924
0.00234791
-0.0045763
0.0024392
-0.0046994
0.00252422
-0.00481286
0.00260473
-0.00492011
0.00268212
-0.00502374
0.00275748
-0.00512558
0.00283157
-0.00522687
-0.0053284
2.27387e-06
6.91255e-05
1.48572e-05
9.06627e-05
4.21504e-05
2.37899e-05
8.82119e-05
-0.00012095
0.000156479
-0.000333895
0.000249476
-0.000607804
0.000368179
-0.000934108
0.00051143
-0.0013017
0.000675639
-0.00169638
0.000855028
-0.00210172
0.00104242
-0.00250104
0.00123037
-0.00287959
0.00141224
-0.00322634
0.00158298
-0.00353484
0.00173951
-0.00380314
0.00188062
-0.00403296
0.00200668
-0.00422856
0.00211915
-0.00439562
0.0022201
-0.00454019
0.00231183
-0.00466802
0.00239652
-0.00478409
0.00247609
-0.00489244
0.00255212
-0.00499614
0.00262579
-0.00509741
0.00269799
-0.00519777
0.00276931
-0.0052982
0.00284018
-0.00539927
-0.00550132
2.72362e-06
6.64019e-05
1.68121e-05
7.65743e-05
4.68424e-05
-6.24044e-06
9.69971e-05
-0.000171105
0.000170682
-0.00040758
0.000270123
-0.000707245
0.000395658
-0.00105964
0.000545163
-0.00145121
0.000713934
-0.00186515
0.000895198
-0.00228298
0.00108119
-0.00268703
0.00126439
-0.0030628
0.00143864
-0.00340059
0.00159971
-0.00369591
0.00174547
-0.0039489
0.0018756
-0.0041631
0.00199121
-0.00434417
0.00209423
-0.00449864
0.00218699
-0.00463295
0.00227181
-0.00475284
0.00235079
-0.00486307
0.00242567
-0.00496731
0.0024978
-0.00506827
0.00256819
-0.0051678
0.00263753
-0.00526711
0.0027063
-0.00536696
0.00277481
-0.00546778
0.00284326
-0.00556977
-0.00567304
3.21991e-06
6.3182e-05
1.89288e-05
6.08654e-05
5.18637e-05
-3.91753e-05
0.000106295
-0.000225536
0.000185528
-0.000486813
0.000291384
-0.0008131
0.000423425
-0.00119168
0.000578461
-0.00160624
0.000750657
-0.00203734
0.000932365
-0.00246469
0.00111544
-0.0028701
0.00129258
-0.00323994
0.00145828
-0.00356629
0.00160923
-0.00384687
0.00174426
-0.00408393
0.00186391
-0.00428274
0.00196983
-0.0044501
0.00206434
-0.00459315
0.00214985
-0.00471846
0.00222865
-0.00483164
0.00230267
-0.00493709
0.00237346
-0.0050381
0.00244217
-0.00513697
0.0025096
-0.00523523
0.00257631
-0.00533382
0.00264266
-0.00543332
0.00270889
-0.00553401
0.00277515
-0.00563604
0.00284155
-0.00573944
-0.00584421
3.7625e-06
5.94195e-05
2.12053e-05
4.34227e-05
5.72044e-05
-7.51745e-05
0.000116076
-0.000284407
0.000200942
-0.00057168
0.0003131
-0.000925258
0.000451208
-0.00132979
0.000610929
-0.00176597
0.000785334
-0.00221175
0.000966063
-0.00264542
0.00114484
-0.00304889
0.00131481
-0.0034099
0.00147129
-0.00372277
0.00161196
-0.00398754
0.00173656
-0.00420853
0.00184633
-0.00439251
0.00194342
-0.00454718
0.0020303
-0.00468003
0.00210944
-0.0047976
0.00218299
-0.00490519
0.00225269
-0.0050068
0.00231988
-0.00510529
0.0023855
-0.0052026
0.00245021
-0.00529994
0.00251445
-0.00539806
0.00257848
-0.00549735
0.00264248
-0.00559801
0.00270657
-0.00570013
0.00277084
-0.00580371
-0.00590872
4.35098e-06
5.50685e-05
2.36383e-05
2.41353e-05
6.28515e-05
-0.000114388
0.000126299
-0.000347855
0.000216833
-0.000662213
0.000335095
-0.00104352
0.000478719
-0.00147342
0.000642177
-0.00192942
0.000817529
-0.0023871
0.000995912
-0.0028238
0.00116918
-0.00322215
0.00133111
-0.00357183
0.00147797
-0.00386963
0.00160842
-0.00411799
0.00172304
-0.00432315
0.00182366
-0.00449313
0.00191274
-0.00463626
0.00199286
-0.00476016
0.00206641
-0.00487115
0.00213536
-0.00497413
0.00220125
-0.00507269
0.00226521
-0.00516925
0.00232801
-0.0052654
0.00239018
-0.00536211
0.00245205
-0.00545992
0.00251381
-0.00555911
0.00257562
-0.00565982
0.00263755
-0.00576206
0.00269968
-0.00586584
0.00276207
-0.00597111
-0.00607784
4.98479e-06
5.00837e-05
2.62237e-05
2.89643e-06
6.87888e-05
-0.000156953
0.000136922
-0.000415988
0.000233098
-0.00075839
0.000357177
-0.0011676
0.000505661
-0.0016219
0.000671825
-0.00209559
0.000846856
-0.00256213
0.00102162
-0.00299857
0.00118833
-0.00338886
0.0013416
-0.0037251
0.00147868
-0.00400671
0.00159918
-0.00423849
0.0017044
-0.00442837
0.00179663
-0.00458535
0.00187852
-0.00471816
0.00195266
-0.0048343
0.00202128
-0.00493977
0.00208617
-0.00503902
0.00214866
-0.00513518
0.00220968
-0.00523027
0.00226987
-0.00532559
0.00232962
-0.00542186
0.00238918
-0.00551948
0.00244872
-0.00561865
0.00250833
-0.00571943
0.0025681
-0.00582183
0.00262808
-0.00592581
0.00268832
-0.00603136
0.0027489
-0.00613841
-0.00624694
5.66323e-06
4.44205e-05
2.8956e-05
-2.03963e-05
7.49971e-05
-0.000202994
0.00014789
-0.000488881
0.000249624
-0.000860125
0.000379142
-0.00129712
0.000531735
-0.00177449
0.000699522
-0.00226337
0.000872994
-0.0027356
0.00104299
-0.00316857
0.00120232
-0.00354819
0.00134652
-0.0038693
0.00147387
-0.00413405
0.00158482
-0.00434945
0.00168129
-0.00452484
0.00176589
-0.00466995
0.00184137
-0.00479363
0.00191021
-0.00490314
0.00197448
-0.00500404
0.00203576
-0.0051003
0.00209517
-0.00519459
0.00215347
-0.00528858
0.00221118
-0.00538329
0.00226858
-0.00547927
0.00232589
-0.00557679
0.00238322
-0.00567598
0.00244064
-0.00577686
0.00249824
-0.00587942
0.00255605
-0.00598363
0.00261413
-0.00608944
0.00267254
-0.00619682
0.00273135
-0.00630574
-0.00641617
6.38552e-06
3.80349e-05
3.18291e-05
-4.58399e-05
8.14536e-05
-0.000252618
0.000159145
-0.000566572
0.000266286
-0.000967266
0.000400777
-0.00143161
0.000556648
-0.00193036
0.000724948
-0.00243167
0.000895687
-0.00290634
0.00105993
-0.00333282
0.00121125
-0.00369951
0.0013462
-0.00400424
0.00146402
-0.00425187
0.00156594
-0.00445137
0.00165435
-0.00461325
0.00173207
-0.00474767
0.00180182
-0.00486338
0.00186597
-0.00496729
0.00192636
-0.00506444
0.00198438
-0.00515832
0.00204095
-0.00525116
0.0020967
-0.00534433
0.00215202
-0.0054386
0.00220714
-0.00553439
0.00226221
-0.00563186
0.00231734
-0.0057311
0.00237257
-0.0058321
0.00242798
-0.00593483
0.0024836
-0.00603925
0.0025395
-0.00614534
0.00259573
-0.00625305
0.00265234
-0.00636236
0.00270941
-0.00647324
0.002767
-0.00658569
-0.00669967
7.15073e-06
3.08842e-05
3.48355e-05
-7.35247e-05
8.81326e-05
-0.000305915
0.00017062
-0.000649059
0.000282949
-0.00107959
0.000421866
-0.00157052
0.000580119
-0.00208862
0.000747828
-0.00259938
0.000914757
-0.00307327
0.00107242
-0.00349048
0.0012153
-0.00384239
0.00134098
-0.00412992
0.00144962
-0.00436052
0.0015431
-0.00454485
0.00162414
-0.00469429
0.00169567
-0.00481919
0.00176032
-0.00492804
0.00182028
-0.00502725
0.0018772
-0.00512136
0.00193223
-0.00521335
0.00198615
-0.00530508
0.00203946
-0.00539764
0.00209246
-0.0054916
0.00214533
-0.00558726
0.00219818
-0.00568472
0.0022511
-0.00578402
0.00230414
-0.00588513
0.00235734
-0.00598803
0.00241076
-0.00609267
0.00246445
-0.00619903
0.00251846
-0.00630706
0.00257286
-0.00641675
0.0026277
-0.00652808
0.00268305
-0.00664104
0.002739
-0.00675561
-0.00687182
7.95776e-06
2.29265e-05
3.79668e-05
-0.000103534
9.50048e-05
-0.000362953
0.000182244
-0.000736299
0.000299474
-0.00119682
0.000442189
-0.00171324
0.000601891
-0.00224832
0.00076794
-0.00276543
0.000930095
-0.00323542
0.00108053
-0.00364092
0.00121472
-0.00397658
0.00133128
-0.00424648
0.00143119
-0.00446042
0.00151683
-0.0046305
0.00159118
-0.00476864
0.00165715
-0.00488516
0.00171725
-0.00498814
0.00177346
-0.00508346
0.0018272
-0.0051751
0.00187947
-0.00526561
0.00193087
-0.00535649
0.00198182
-0.00544858
0.00203254
-0.00554232
0.00208318
-0.00563789
0.00213382
-0.00573536
0.00218452
-0.00583473
0.00223535
-0.00593596
0.00228634
-0.00603902
0.00233753
-0.00614387
0.00238899
-0.00625048
0.00244076
-0.00635883
0.00249291
-0.0064689
0.00254549
-0.00658066
0.00259857
-0.00669413
0.00265222
-0.00680926
0.0027065
-0.0069261
-0.0070445
8.80533e-06
1.41211e-05
4.12132e-05
-0.000135942
0.000102037
-0.000423778
0.000193937
-0.000828199
0.000315712
-0.0013186
0.000461537
-0.00185906
0.000621734
-0.00240852
0.000785111
-0.00292881
0.000941663
-0.00339198
0.00108439
-0.00378365
0.00120982
-0.00410201
0.00131752
-0.00435419
0.0014092
-0.00455209
0.00148763
-0.00470893
0.00155592
-0.00483693
0.0016169
-0.00494614
0.00167291
-0.00504415
0.00172572
-0.00513626
0.00177654
-0.00522593
0.0018262
-0.00531527
0.00187519
-0.00540548
0.00192383
-0.00549723
0.00197231
-0.00559079
0.00202072
-0.0056863
0.00206914
-0.00578378
0.00211763
-0.00588321
0.00216623
-0.00598456
0.00221498
-0.00608777
0.00226394
-0.00619283
0.00231314
-0.00629969
0.00236265
-0.00640834
0.00241251
-0.00651876
0.0024628
-0.00663095
0.00251357
-0.0067449
0.00256489
-0.00686058
0.00261681
-0.00697802
0.00266942
-0.0070971
-0.00721813
9.69194e-06
4.42918e-06
4.45637e-05
-0.000170813
0.000109194
-0.000488408
0.000205615
-0.00092462
0.000331514
-0.0014445
0.000479706
-0.00200726
0.000639449
-0.00256826
0.000799225
-0.00308858
0.000949489
-0.00354224
0.00108419
-0.00391835
0.00120091
-0.00421872
0.00130012
-0.0044534
0.0013841
-0.00463608
0.00145594
-0.00478077
0.00151875
-0.00489973
0.00157524
-0.00500263
0.00162756
-0.00509647
0.00167725
-0.00518595
0.00172534
-0.00527402
0.00177252
-0.00536244
0.00181917
-0.00545214
0.00186554
-0.0055436
0.00191178
-0.00563703
0.00195797
-0.00573249
0.00200417
-0.00582998
0.00205043
-0.00592947
0.00209679
-0.00603092
0.00214329
-0.00613428
0.00218999
-0.00623952
0.00223691
-0.00634662
0.00228413
-0.00645555
0.00233169
-0.00656632
0.00237965
-0.00667891
0.00242807
-0.00679332
0.00247702
-0.00690953
0.00252654
-0.00702754
0.00257671
-0.00714727
0.00262754
-0.00726896
0.0026793
-0.00739159
-0.00751997
1.06158e-05
-6.18659e-06
4.80056e-05
-0.000208203
0.000116436
-0.000556838
0.000217189
-0.00102537
0.00034673
-0.00157404
0.000496512
-0.00215704
0.000654877
-0.00272662
0.000810221
-0.00324393
0.000953653
-0.00368567
0.00108015
-0.00404484
0.00118834
-0.00432691
0.00127948
-0.00454454
0.00135634
-0.00471293
0.00142215
-0.00484659