/*--------------------------------*- C++ -*----------------------------------*\
  =========                 |
  \\      /  F ield         | OpenFOAM: The Open Source CFD Toolbox
   \\    /   O peration     | Website:  https://openfoam.org
    \\  /    A nd           | Version:  7
     \\/     M anipulation  |
\*---------------------------------------------------------------------------*/
FoamFile
{
    version     2.0;
    format      ascii;
    class       surfaceScalarField;
    location    "15";
    object      phi;
}
// * * * * * * * * * * * * * * * * * * * * * * * * * * * * * * * * * * * * * //

dimensions      [0 3 -1 0 0 0 0];

internalField   nonuniform List<scalar> 
5147
(
0.00249556
-0.000293764
0.00249044
-0.00030002
0.00248528
-0.000306731
0.00248006
-0.000313929
0.00247479
-0.000321647
0.00246946
-0.000329919
0.00246406
-0.000338774
0.00245859
-0.000348245
0.00245304
-0.000358358
0.0024474
-0.000369141
0.00244166
-0.000380613
0.00243583
-0.000392792
0.00242988
-0.000405683
0.00242381
-0.000419293
0.00241762
-0.000433603
0.00241129
-0.000448602
0.00240482
-0.000464231
0.00239821
-0.000480469
0.00239145
-0.000497183
0.00238453
-0.000514363
0.00237746
-0.000531738
0.00237024
-0.000549381
0.00236286
-0.000566746
0.00235534
-0.000584172
0.00234768
-0.000600527
0.00233989
-0.000616877
0.00233201
-0.000630794
0.00232401
-0.000645149
0.00231598
-0.000654588
0.00230786
-0.000666288
0.00229983
-0.000668257
0.00229168
-0.000677627
0.00228383
-0.000667447
0.00227577
-0.000677243
0.00226838
-0.000647172
0.00226043
-0.000664804
-0.000604389
0.00258689
-0.000233135
0.00258206
-0.000235888
0.00257722
-0.000238745
0.00257236
-0.000241722
0.0025675
-0.000244839
0.00256261
-0.000248117
0.00255771
-0.000251576
0.00255279
-0.000255238
0.00254785
-0.000259126
0.00254288
-0.000263265
0.00253789
-0.000267679
0.00253288
-0.000272396
0.00252783
-0.000277443
0.00252274
-0.000282847
0.00251762
-0.000288641
0.00251245
-0.000294853
0.00250724
-0.000301516
0.00250197
-0.000308661
0.00249664
-0.00031632
0.00249125
-0.000324527
0.00248579
-0.000333311
0.00248025
-0.000342704
0.00247462
-0.000352732
0.0024689
-0.000363422
0.00246308
-0.000374794
0.00245715
-0.000386865
0.00245111
-0.00039964
0.00244494
-0.000413126
0.00243865
-0.000427304
0.00243221
-0.000442164
0.00242562
-0.000457647
0.00241889
-0.000473733
0.002412
-0.000490291
0.00240494
-0.00050731
0.00239773
-0.000524525
0.00239035
-0.000542004
0.00238282
-0.000559214
0.00237513
-0.000576481
0.0023673
-0.000592702
0.00235933
-0.000608906
0.00235127
-0.000622727
0.00234307
-0.000636957
0.00233486
-0.000646371
0.00232653
-0.000657962
0.0023183
-0.000660027
0.00230995
-0.000669273
0.0023019
-0.000659399
0.00229362
-0.000668965
0.00228603
-0.000639579
0.00227788
-0.000656658
-0.00059744
0.00260938
-0.00022831
0.00260455
-0.00023105
0.00259969
-0.000233892
0.00259482
-0.000236854
0.00258994
-0.000239955
0.00258504
-0.000243215
0.00258012
-0.000246654
0.00257517
-0.000250295
0.00257021
-0.000254161
0.00256522
-0.000258274
0.0025602
-0.00026266
0.00255515
-0.000267346
0.00255006
-0.000272358
0.00254494
-0.000277725
0.00253977
-0.000283476
0.00253456
-0.000289641
0.0025293
-0.000296252
0.00252398
-0.00030334
0.0025186
-0.000310938
0.00251314
-0.000319075
0.00250762
-0.000327784
0.00250201
-0.000337095
0.00249631
-0.000347033
0.00249051
-0.000357626
0.00248461
-0.000368893
0.0024786
-0.00038085
0.00247246
-0.000393504
0.0024662
-0.00040686
0.00245979
-0.0004209
0.00245324
-0.000435615
0.00244654
-0.000450946
0.00243968
-0.000466874
0.00243266
-0.000483269
0.00242547
-0.00050012
0.00241811
-0.000517168
0.00241059
-0.000534476
0.0024029
-0.000551525
0.00239504
-0.000568626
0.00238705
-0.000584705
0.0023789
-0.000600758
0.00237065
-0.000614477
0.00236227
-0.000628575
0.00235386
-0.00063796
0.00234533
-0.000649437
0.0023369
-0.000651594
0.00232834
-0.000660713
0.00232008
-0.000651146
0.0023116
-0.000660478
0.0023038
-0.00063178
0.00229545
-0.00064831
-0.000590297
0.00263195
-0.000223479
0.00262711
-0.000226204
0.00262225
-0.000229029
0.00261737
-0.000231974
0.00261247
-0.000235056
0.00260755
-0.000238297
0.00260261
-0.000241715
0.00259765
-0.000245332
0.00259266
-0.000249172
0.00258764
-0.000253257
0.00258259
-0.000257613
0.00257751
-0.000262264
0.00257239
-0.000267239
0.00256723
-0.000272565
0.00256203
-0.00027827
0.00255677
-0.000284386
0.00255146
-0.000290942
0.00254609
-0.00029797
0.00254066
-0.0003055
0.00253515
-0.000313565
0.00252956
-0.000322195
0.00252388
-0.000331419
0.00251811
-0.000341263
0.00251224
-0.000351754
0.00250626
-0.00036291
0.00250015
-0.000374749
0.00249393
-0.000387276
0.00248756
-0.000400496
0.00248106
-0.000414393
0.0024744
-0.000428956
0.00246758
-0.00044413
0.0024606
-0.000459892
0.00245345
-0.000476118
0.00244612
-0.000492794
0.00243862
-0.000509668
0.00243094
-0.000526799
0.0024231
-0.000543679
0.00241508
-0.000560607
0.00240691
-0.000576537
0.00239859
-0.000592432
0.00239015
-0.000606044
0.00238158
-0.000620004
0.00237298
-0.000629355
0.00236425
-0.000640711
0.00235562
-0.00064296
0.00234685
-0.000651946
0.00233839
-0.000642687
0.00232969
-0.000651781
0.00232169
-0.000623774
0.00231314
-0.000639758
-0.00058296
0.0026546
-0.000218645
0.00264975
-0.000221351
0.00264488
-0.000224159
0.00263999
-0.000227084
0.00263508
-0.000230146
0.00263015
-0.000233364
0.00262519
-0.000236758
0.00262021
-0.00024035
0.0026152
-0.000244162
0.00261016
-0.000248216
0.00260508
-0.000252538
0.00259997
-0.000257153
0.00259482
-0.000262088
0.00258963
-0.000267369
0.00258438
-0.000273026
0.00257908
-0.000279089
0.00257373
-0.000285586
0.00256831
-0.00029255
0.00256282
-0.00030001
0.00255725
-0.000307999
0.0025516
-0.000316544
0.00254586
-0.000325677
0.00254002
-0.000335423
0.00253407
-0.000345807
0.00252801
-0.000356848
0.00252182
-0.000368562
0.0025155
-0.000380957
0.00250904
-0.000394036
0.00250243
-0.000407784
0.00249567
-0.000422189
0.00248874
-0.000437198
0.00248163
-0.000452788
0.00247435
-0.000468838
0.00246689
-0.000485333
0.00245925
-0.000502026
0.00245142
-0.000518972
0.00244342
-0.000535676
0.00243524
-0.000552425
0.0024269
-0.000568199
0.0024184
-0.000583928
0.00240978
-0.000597427
0.00240102
-0.000611243
0.00239222
-0.000620555
0.00238329
-0.000631785
0.00237446
-0.000634123
0.00236548
-0.000642971
0.00235682
-0.000634022
0.00234791
-0.000642874
0.0023397
-0.000615562
0.00233094
-0.000631003
-0.000575427
0.00267733
-0.000213807
0.00267247
-0.000216495
0.00266759
-0.000219281
0.00266269
-0.000222185
0.00265777
-0.000225225
0.00265283
-0.000228418
0.00264785
-0.000231787
0.00264286
-0.00023535
0.00263782
-0.000239131
0.00263276
-0.000243153
0.00262766
-0.000247439
0.00262252
-0.000252014
0.00261734
-0.000256906
0.00261211
-0.00026214
0.00260683
-0.000267745
0.00260149
-0.000273751
0.00259609
-0.000280186
0.00259063
-0.000287082
0.00258508
-0.000294469
0.00257946
-0.000302376
0.00257375
-0.000310834
0.00256795
-0.000319871
0.00256204
-0.000329514
0.00255601
-0.000339785
0.00254987
-0.000350706
0.0025436
-0.000362292
0.00253719
-0.000374548
0.00253064
-0.00038748
0.00252393
-0.000401072
0.00251705
-0.000415314
0.00251001
-0.000430152
0.00250278
-0.000445564
0.00249537
-0.000461431
0.00248778
-0.000477737
0.00248
-0.000494243
0.00247202
-0.000510996
0.00246386
-0.000527518
0.00245552
-0.00054408
0.00244701
-0.000559692
0.00243833
-0.000575248
0.00242953
-0.000588628
0.00242058
-0.000602292
0.00241158
-0.000611561
0.00240246
-0.000622659
0.00239342
-0.000625084
0.00238424
-0.000633789
0.00237536
-0.00062515
0.00236625
-0.000633757
0.00235783
-0.000607142
0.00234887
-0.000622043
-0.000567697
0.00270012
-0.000208969
0.00269526
-0.000211635
0.00269038
-0.000214399
0.00268548
-0.00021728
0.00268054
-0.000220294
0.00267559
-0.000223462
0.0026706
-0.000226801
0.00266559
-0.000230335
0.00266054
-0.000234083
0.00265545
-0.000238068
0.00265033
-0.000242316
0.00264516
-0.000246849
0.00263995
-0.000251694
0.00263469
-0.000256878
0.00262937
-0.000262428
0.002624
-0.000268374
0.00261856
-0.000274744
0.00261304
-0.000281568
0.00260745
-0.000288877
0.00260177
-0.000296699
0.002596
-0.000305065
0.00259013
-0.000314002
0.00258416
-0.000323536
0.00257806
-0.000333692
0.00257184
-0.000344487
0.00256549
-0.000355938
0.00255899
-0.000368051
0.00255234
-0.00038083
0.00254553
-0.000394261
0.00253855
-0.000408332
0.00253139
-0.000422993
0.00252405
-0.00043822
0.00251651
-0.000453897
0.00250878
-0.000470008
0.00250086
-0.000486318
0.00249274
-0.000502872
0.00248442
-0.000519204
0.00247591
-0.000535572
0.00246724
-0.000551014
0.00245838
-0.000566391
0.0024494
-0.000579645
0.00244026
-0.000593152
0.00243107
-0.000602373
0.00242174
-0.000613333
0.0024125
-0.000615841
0.00240311
-0.000624399
0.00239403
-0.00061607
0.0023847
-0.000624429
0.00237607
-0.000598514
0.00236691
-0.000612879
-0.00055977
0.00272299
-0.000204131
0.00271813
-0.000206773
0.00271325
-0.000209514
0.00270834
-0.000212368
0.0027034
-0.000215356
0.00269843
-0.000218495
0.00269343
-0.000221804
0.0026884
-0.000225304
0.00268334
-0.000229017
0.00267823
-0.000232964
0.00267309
-0.00023717
0.0026679
-0.000241658
0.00266266
-0.000246454
0.00265736
-0.000251585
0.00265201
-0.000257077
0.0026466
-0.000262959
0.00264111
-0.00026926
0.00263556
-0.000276009
0.00262991
-0.000283236
0.00262418
-0.00029097
0.00261836
-0.000299239
0.00261243
-0.000308072
0.00260638
-0.000317493
0.00260022
-0.000327527
0.00259392
-0.000338191
0.00258749
-0.000349502
0.0025809
-0.000361466
0.00257416
-0.000374087
0.00256725
-0.00038735
0.00256016
-0.000401245
0.00255289
-0.000415721
0.00254543
-0.000430757
0.00253777
-0.000446237
0.00252991
-0.000462145
0.00252184
-0.000478254
0.00251357
-0.000494601
0.0025051
-0.000510735
0.00249643
-0.000526901
0.00248758
-0.000542168
0.00247855
-0.000557358
0.00246939
-0.000570479
0.00246006
-0.000583823
0.00245067
-0.00059299
0.00244115
-0.000603807
0.0024317
-0.000606396
0.0024221
-0.000614801
0.00241282
-0.000606782
0.00240328
-0.00061489
0.00239444
-0.000589678
0.00238507
-0.000603508
-0.000551644
0.00274594
-0.000199294
0.00274108
-0.000201911
0.00273619
-0.000204626
0.00273127
-0.000207453
0.00272633
-0.000210411
0.00272135
-0.000213519
0.00271634
-0.000216795
0.0027113
-0.000220261
0.00270622
-0.000223935
0.0027011
-0.000227842
0.00269593
-0.000232003
0.00269072
-0.000236444
0.00268545
-0.000241188
0.00268013
-0.000246262
0.00267474
-0.000251693
0.00266929
-0.000257508
0.00266377
-0.000263737
0.00265817
-0.000270407
0.00265248
-0.000277548
0.0026467
-0.000285189
0.00264081
-0.000293357
0.00263482
-0.000302081
0.00262871
-0.000311384
0.00262248
-0.000321292
0.00261611
-0.00033182
0.00260959
-0.000342986
0.00260292
-0.000354795
0.00259609
-0.000367251
0.00258908
-0.000380341
0.00258188
-0.000394053
0.0025745
-0.000408339
0.00256692
-0.000423175
0.00255914
-0.000438453
0.00255114
-0.000454151
0.00254294
-0.00047005
0.00253452
-0.000486183
0.0025259
-0.000502113
0.00251707
-0.00051807
0.00250805
-0.000533153
0.00249884
-0.000548149
0.00248949
-0.000561132
0.00247998
-0.000574305
0.0024704
-0.000583413
0.00246067
-0.000594081
0.00245102
-0.000596747
0.00244122
-0.000604996
0.00243172
-0.000597285
0.00242197
-0.000605141
0.00241293
-0.000580632
0.00240335
-0.000593932
-0.000543318
0.00276896
-0.000194461
0.00276409
-0.000197051
0.00275921
-0.000199737
0.00275429
-0.000202534
0.00274934
-0.000205462
0.00274435
-0.000208536
0.00273934
-0.000211778
0.00273428
-0.000215205
0.00272919
-0.00021884
0.00272405
-0.000222703
0.00271886
-0.000226817
0.00271362
-0.000231207
0.00270833
-0.000235896
0.00270298
-0.000240911
0.00269757
-0.000246277
0.00269208
-0.000252022
0.00268652
-0.000258175
0.00268087
-0.000264762
0.00267514
-0.000271813
0.00266931
-0.000279357
0.00266337
-0.00028742
0.00265732
-0.000296031
0.00265115
-0.000305212
0.00264484
-0.000314988
0.0026384
-0.000325375
0.0026318
-0.00033639
0.00262505
-0.000348039
0.00261812
-0.000360325
0.00261101
-0.000373234
0.00260372
-0.000386758
0.00259622
-0.000400846
0.00258853
-0.000415477
0.00258062
-0.000430544
0.00257249
-0.000446025
0.00256415
-0.000461707
0.00255559
-0.000477619
0.00254681
-0.000493337
0.00253782
-0.000509077
0.00252863
-0.000523969
0.00251925
-0.000538765
0.00250972
-0.000551602
0.00250001
-0.000564598
0.00249024
-0.000573642
0.00248032
-0.000584155
0.00247046
-0.000586894
0.00246045
-0.000594982
0.00245075
-0.00058758
0.00244079
-0.000595181
0.00243153
-0.000571376
0.00242175
-0.00058415
-0.000534792
0.00279204
-0.000189631
0.00278718
-0.000192193
0.0027823
-0.000194848
0.00277738
-0.000197614
0.00277242
-0.000200508
0.00276743
-0.000203548
0.00276241
-0.000206752
0.00275734
-0.000210139
0.00275223
-0.000213731
0.00274708
-0.000217548
0.00274187
-0.000221613
0.00273662
-0.000225949
0.0027313
-0.000230581
0.00272592
-0.000235533
0.00272048
-0.000240831
0.00271496
-0.000246503
0.00270936
-0.000252575
0.00270367
-0.000259076
0.00269789
-0.000266034
0.00269201
-0.000273476
0.00268602
-0.00028143
0.00267991
-0.000289923
0.00267368
-0.000298977
0.00266731
-0.000308616
0.00266079
-0.000318857
0.00265412
-0.000329716
0.00264728
-0.000341198
0.00264026
-0.000353308
0.00263306
-0.000366032
0.00262566
-0.00037936
0.00261806
-0.000393245
0.00261024
-0.000407663
0.00260221
-0.000422513
0.00259396
-0.000437769
0.00258548
-0.000453227
0.00257677
-0.00046891
0.00256784
-0.000484408
0.00255869
-0.000499925
0.00254933
-0.000514619
0.00253978
-0.000529206
0.00253006
-0.00054189
0.00252017
-0.000554703
0.0025102
-0.000563677
0.00250008
-0.000574029
0.00249002
-0.000576838
0.0024798
-0.000584762
0.00246989
-0.000577665
0.00245972
-0.00058501
0.00245025
-0.00056191
0.00244026
-0.000574162
-0.000526066
0.0028152
-0.000184808
0.00281035
-0.000187338
0.00280546
-0.000189961
0.00280054
-0.000192694
0.00279558
-0.000195553
0.00279059
-0.000198555
0.00278556
-0.000201719
0.00278048
-0.000205064
0.00277536
-0.00020861
0.00277019
-0.000212379
0.00276497
-0.000216392
0.0027597
-0.000220672
0.00275436
-0.000225243
0.00274895
-0.000230129
0.00274348
-0.000235356
0.00273793
-0.000240951
0.00273229
-0.00024694
0.00272657
-0.000253351
0.00272074
-0.000260211
0.00271482
-0.000267548
0.00270877
-0.000275388
0.00270261
-0.000283758
0.00269631
-0.000292681
0.00268987
-0.000302178
0.00268328
-0.000312268
0.00267653
-0.000322965
0.00266961
-0.000334275
0.00266251
-0.000346203
0.00265521
-0.000358735
0.00264771
-0.00037186
0.00264
-0.000385535
0.00263207
-0.000399734
0.00262392
-0.000414359
0.00261553
-0.000429384
0.00260691
-0.00044461
0.00259806
-0.000460057
0.00258898
-0.000475328
0.00257967
-0.000490613
0.00257015
-0.000505101
0.00256042
-0.000519473
0.00255053
-0.000531998
0.00254044
-0.00054462
0.00253028
-0.000553518
0.00251996
-0.000563704
0.0025097
-0.000566579
0.00249927
-0.000574333
0.00248915
-0.000567542
0.00247877
-0.000574628
0.00246909
-0.000552234
0.0024589
-0.000563967
-0.000517137
0.00283843
-0.000179991
0.00283358
-0.000182488
0.0028287
-0.000185078
0.00282378
-0.000187774
0.00281882
-0.000190596
0.00281383
-0.000193558
0.00280879
-0.00019668
0.0028037
-0.000199981
0.00279857
-0.00020348
0.00279339
-0.000207197
0.00278815
-0.000211155
0.00278286
-0.000215376
0.0027775
-0.000219883
0.00277207
-0.000224701
0.00276657
-0.000229854
0.00276099
-0.000235368
0.00275532
-0.00024127
0.00274955
-0.000247587
0.00274369
-0.000254346
0.00273771
-0.000261573
0.00273162
-0.000269296
0.0027254
-0.000277538
0.00271904
-0.000286324
0.00271254
-0.000295675
0.00270588
-0.000305608
0.00269905
-0.000316138
0.00269205
-0.000327271
0.00268486
-0.00033901
0.00267746
-0.000351344
0.00266986
-0.000364261
0.00266205
-0.000377718
0.002654
-0.000391691
0.00264573
-0.000406084
0.00263722
-0.000420871
0.00262846
-0.000435858
0.00261947
-0.00045106
0.00261024
-0.000466096
0.00260077
-0.000481142
0.00259108
-0.000495417
0.00258117
-0.000509567
0.0025711
-0.000521925
0.00256083
-0.00053435
0.00255048
-0.000543166
0.00253996
-0.000553181
0.00252949
-0.000556117
0.00251886
-0.000563698
0.00250853
-0.000557209
0.00249793
-0.000564037
0.00248805
-0.000542348
0.00247765
-0.000553566
-0.000508007
0.00286173
-0.000175182
0.00285689
-0.000177645
0.00285201
-0.000180198
0.00284709
-0.000182857
0.00284213
-0.000185639
0.00283714
-0.000188559
0.00283209
-0.000191637
0.002827
-0.000194891
0.00282186
-0.00019834
0.00281667
-0.000202004
0.00281142
-0.000205904
0.0028061
-0.000210063
0.00280073
-0.000214503
0.00279527
-0.000219249
0.00278974
-0.000224325
0.00278413
-0.000229755
0.00277843
-0.000235567
0.00277263
-0.000241786
0.00276672
-0.00024844
0.0027607
-0.000255553
0.00275456
-0.000263153
0.00274829
-0.000271264
0.00274187
-0.000279909
0.0027353
-0.000289108
0.00272857
-0.000298879
0.00272167
-0.000309237
0.00271459
-0.000320186
0.00270731
-0.000331731
0.00269982
-0.00034386
0.00269213
-0.000356562
0.0026842
-0.000369795
0.00267605
-0.000383535
0.00266765
-0.000397689
0.00265901
-0.00041223
0.00265012
-0.00042697
0.00264098
-0.000441921
0.0026316
-0.000456715
0.00262197
-0.000471514
0.00261213
-0.000485568
0.00260205
-0.000499487
0.00259179
-0.000511672
0.00258134
-0.000523893
0.00257079
-0.000532621
0.00256007
-0.000542459
0.0025494
-0.000545452
0.00253856
-0.000552856
0.00252802
-0.000546667
0.00251722
-0.000553235
0.00250712
-0.00053225
0.00249651
-0.000542959
-0.000498674
0.0028851
-0.000170382
0.00288026
-0.000172808
0.00287539
-0.000175323
0.00287048
-0.000177943
0.00286552
-0.000180683
0.00286052
-0.00018356
0.00285547
-0.000186591
0.00285038
-0.000189796
0.00284523
-0.000193192
0.00284003
-0.0001968
0.00283476
-0.00020064
0.00282943
-0.000204734
0.00282403
-0.000209105
0.00281856
-0.000213776
0.00281301
-0.00021877
0.00280737
-0.000224114
0.00280163
-0.000229832
0.00279579
-0.00023595
0.00278985
-0.000242494
0.00278378
-0.00024949
0.00277759
-0.000256963
0.00277127
-0.000264937
0.00276479
-0.000273435
0.00275816
-0.000282478
0.00275137
-0.000292082
0.00274439
-0.000302261
0.00273723
-0.000313022
0.00272986
-0.000324366
0.00272229
-0.000336284
0.00271449
-0.000348765
0.00270646
-0.000361768
0.00269819
-0.000375268
0.00268968
-0.000389176
0.00268091
-0.000403462
0.00267189
-0.000417949
0.00266261
-0.000432641
0.00265308
-0.000447184
0.0026433
-0.000461729
0.00263328
-0.000475555
0.00262303
-0.000489236
0.0026126
-0.00050124
0.00260196
-0.000513251
0.00259122
-0.000521884
0.0025803
-0.000531539
0.00256943
-0.000534584
0.00255838
-0.000541807
0.00254763
-0.000535915
0.00253662
-0.000542223
0.00252631
-0.000521942
0.0025155
-0.000532146
-0.000489139
0.00290854
-0.000165592
0.00290371
-0.00016798
0.00289884
-0.000170455
0.00289393
-0.000173033
0.00288898
-0.000175729
0.00288398
-0.00017856
0.00287893
-0.000181543
0.00287383
-0.000184696
0.00286868
-0.000188037
0.00286346
-0.000191586
0.00285819
-0.000195363
0.00285284
-0.00019939
0.00284743
-0.000203689
0.00284193
-0.000208281
0.00283635
-0.000213192
0.00283069
-0.000218445
0.00282492
-0.000224065
0.00281905
-0.000230078
0.00281306
-0.000236509
0.00280696
-0.000243383
0.00280072
-0.000250725
0.00279434
-0.000258558
0.00278781
-0.000266906
0.00278112
-0.000275787
0.00277425
-0.000285219
0.00276721
-0.000295214
0.00275996
-0.000305779
0.00275252
-0.000316918
0.00274485
-0.000328619
0.00273696
-0.000340871
0.00272883
-0.000353636
0.00272045
-0.00036689
0.00271182
-0.000380544
0.00270292
-0.00039457
0.00269377
-0.000408795
0.00268435
-0.000423219
0.00267467
-0.000437505
0.00266473
-0.000451787
0.00265455
-0.000465377
0.00264413
-0.000478813
0.00263352
-0.00049063
0.00262269
-0.000502423
0.00261176
-0.000510955
0.00260064
-0.000520422
0.00258957
-0.000523513
0.00257832
-0.000530553
0.00256736
-0.000524955
0.00255614
-0.000531003
0.00254562
-0.000511423
0.0025346
-0.000521127
-0.0004794
0.00293205
-0.000160813
0.00292723
-0.00016316
0.00292237
-0.000165593
0.00291746
-0.000168128
0.00291251
-0.000170778
0.00290751
-0.000173561
0.00290246
-0.000176494
0.00289736
-0.000179592
0.0028922
-0.000182876
0.00288698
-0.000186364
0.00288169
-0.000190076
0.00287633
-0.000194033
0.0028709
-0.000198256
0.00286539
-0.000202767
0.00285978
-0.000207591
0.00285409
-0.00021275
0.00284829
-0.000218269
0.00284239
-0.000224173
0.00283637
-0.000230487
0.00283022
-0.000237234
0.00282393
-0.000244441
0.0028175
-0.000252129
0.00281092
-0.000260321
0.00280417
-0.000269035
0.00279724
-0.000278289
0.00279012
-0.000288095
0.0027828
-0.00029846
0.00277527
-0.000309386
0.00276751
-0.000320864
0.00275952
-0.000332882
0.00275129
-0.000345403
0.0027428
-0.000358402
0.00273405
-0.000371796
0.00272504
-0.000385553
0.00271575
-0.000399509
0.00270619
-0.000413659
0.00269636
-0.000427679
0.00268627
-0.000441691
0.00267593
-0.000455037
0.00266533
-0.00046822
0.00265455
-0.000479841
0.00264353
-0.00049141
0.00263241
-0.000499835
0.0026211
-0.000509108
0.00260983
-0.000512241
0.00259837
-0.000519094
0.0025872
-0.000513786
0.00257577
-0.000519573
0.00256504
-0.000500694
0.00255382
-0.000509903
-0.000469459
0.00295563
-0.000156046
0.00295082
-0.00015835
0.00294596
-0.00016074
0.00294106
-0.000163229
0.00293612
-0.000165832
0.00293112
-0.000168565
0.00292607
-0.000171444
0.00292097
-0.000174486
0.0029158
-0.000177711
0.00291057
-0.000181135
0.00290527
-0.000184779
0.0028999
-0.000188662
0.00289445
-0.000192807
0.00288892
-0.000197235
0.0028833
-0.000201968
0.00287758
-0.00020703
0.00287175
-0.000212444
0.00286581
-0.000218235
0.00285976
-0.000224428
0.00285357
-0.000231046
0.00284724
-0.000238112
0.00284076
-0.00024565
0.00283412
-0.000253681
0.00282731
-0.000262224
0.00282032
-0.000271295
0.00281313
-0.000280907
0.00280573
-0.000291065
0.00279812
-0.000301773
0.00279028
-0.00031302
0.00278219
-0.000324797
0.00277386
-0.000337067
0.00276526
-0.000349806
0.0027564
-0.000362931
0.00274726
-0.000376413
0.00273784
-0.000390092
0.00272814
-0.000403959
0.00271817
-0.000417706
0.00270792
-0.00043144
0.00269741
-0.000444534
0.00268665
-0.000457457
0.00267569
-0.000468876
0.00266449
-0.000480213
0.00265318
-0.000488525
0.00264167
-0.000497598
0.0026302
-0.000500768
0.00261853
-0.00050743
0.00260715
-0.000502408
0.00259552
-0.000507936
0.00258458
-0.000489753
0.00257315
-0.000498475
-0.000459314
0.00297927
-0.00015129
0.00297447
-0.000153551
0.00296963
-0.000155895
0.00296474
-0.000158337
0.0029598
-0.00016089
0.0029548
-0.00016357
0.00294975
-0.000166395
0.00294465
-0.000169379
0.00293948
-0.000172541
0.00293424
-0.000175899
0.00292893
-0.000179472
0.00292355
-0.00018328
0.00291809
-0.000187344
0.00291254
-0.000191684
0.00290689
-0.000196324
0.00290115
-0.000201285
0.0028953
-0.000206591
0.00288933
-0.000212266
0.00288323
-0.000218334
0.002877
-0.000224817
0.00287063
-0.00023174
0.0028641
-0.000239123
0.00285741
-0.000246989
0.00285054
-0.000255355
0.00284349
-0.000264238
0.00283623
-0.000273649
0.00282876
-0.000283595
0.00282106
-0.000294079
0.00281313
-0.00030509
0.00280496
-0.00031662
0.00279652
-0.000328632
0.00278782
-0.000341102
0.00277884
-0.000353953
0.00276958
-0.000367151
0.00276003
-0.000380545
0.00275019
-0.000394123
0.00274007
-0.000407588
0.00272967
-0.000421036
0.00271901
-0.000433871
0.00270808
-0.000446526
0.00269693
-0.000457734
0.00268555
-0.000468834
0.00267405
-0.000477024
0.00266235
-0.000485893
0.00265068
-0.000489094
0.00263881
-0.000495562
0.00262722
-0.000490822
0.00261538
-0.000496091
0.00260423
-0.000478603
0.00259259
-0.000486842
-0.000448966
0.00300299
-0.000146548
0.0029982
-0.000148764
0.00299337
-0.00015106
0.00298848
-0.000153452
0.00298355
-0.000155954
0.00297856
-0.00015858
0.00297351
-0.000161347
0.0029684
-0.000164271
0.00296323
-0.000167368
0.00295799
-0.000170658
0.00295267
-0.000174157
0.00294728
-0.000177887
0.0029418
-0.000181867
0.00293623
-0.000186117
0.00293057
-0.00019066
0.0029248
-0.000195517
0.00291892
-0.000200712
0.00291292
-0.000206267
0.00290679
-0.000212205
0.00290053
-0.00021855
0.00289411
-0.000225324
0.00288754
-0.000232549
0.00288079
-0.000240244
0.00287387
-0.000248429
0.00286675
-0.000257118
0.00285942
-0.000266324
0.00285188
-0.000276052
0.0028441
-0.000286305
0.00283609
-0.000297074
0.00282782
-0.000308349
0.00281928
-0.000320097
0.00281047
-0.000332292
0.00280138
-0.00034486
0.002792
-0.000357768
0.00278232
-0.00037087
0.00277235
-0.000384149
0.00276209
-0.000397325
0.00275153
-0.00041048
0.00274071
-0.000423048
0.00272961
-0.000435427
0.00271829
-0.000446417
0.00270673
-0.000457273
0.00269504
-0.000465335
0.00268314
-0.000473994
0.00267127
-0.00047722
0.0026592
-0.000483491
0.0026474
-0.000479029
0.00263535
-0.00048404
0.00262399
-0.000467243
0.00261216
-0.000475006
-0.000438414
0.00302678
-0.00014182
0.003022
-0.000143988
0.00301717
-0.000146235
0.0030123
-0.000148576
0.00300737
-0.000151024
0.00300238
-0.000153594
0.00299734
-0.000156301
0.00299223
-0.000159162
0.00298705
-0.000162193
0.00298181
-0.000165411
0.00297648
-0.000168835
0.00297108
-0.000172484
0.00296559
-0.000176376
0.00296001
-0.000180534
0.00295432
-0.000184977
0.00294853
-0.000189727
0.00294263
-0.000194806
0.0029366
-0.000200238
0.00293044
-0.000206043
0.00292413
-0.000212246
0.00291768
-0.000218867
0.00291106
-0.000225928
0.00290426
-0.000233449
0.00289728
-0.000241447
0.0028901
-0.000249937
0.0028827
-0.000258931
0.00287509
-0.000268435
0.00286724
-0.000278452
0.00285913
-0.000288973
0.00285077
-0.000299988
0.00284214
-0.000311464
0.00283322
-0.000323377
0.00282402
-0.000335655
0.00281452
-0.000348265
0.00280471
-0.000361067
0.00279461
-0.000374041
0.0027842
-0.000386919
0.00277349
-0.000399773
0.00276251
-0.000412065
0.00275125
-0.000424162
0.00273975
-0.000434926
0.00272801
-0.00044553
0.00271613
-0.000453458
0.00270404
-0.000461902
0.00269197
-0.000465146
0.0026797
-0.000471219
0.0026677
-0.000467029
0.00265544
-0.000471783
0.00264387
-0.000455673
0.00263183
-0.000462967
-0.00042766
0.00305063
-0.000137106
0.00304587
-0.000139224
0.00304105
-0.000141421
0.00303619
-0.000143708
0.00303126
-0.000146101
0.00302628
-0.000148612
0.00302124
-0.000151258
0.00301613
-0.000154054
0.00301095
-0.000157016
0.0030057
-0.000160161
0.00300037
-0.000163506
0.00299496
-0.000167071
0.00298946
-0.000170874
0.00298386
-0.000174936
0.00297816
-0.000179275
0.00297235
-0.000183915
0.00296642
-0.000188876
0.00296036
-0.00019418
0.00295417
-0.000199849
0.00294782
-0.000205905
0.00294133
-0.000212369
0.00293466
-0.000219262
0.00292781
-0.000226603
0.00292078
-0.000234409
0.00291354
-0.000242696
0.00290608
-0.000251473
0.00289839
-0.000260748
0.00289046
-0.000270522
0.00288227
-0.000280788
0.00287382
-0.000291536
0.00286509
-0.000302734
0.00285607
-0.000314357
0.00284676
-0.000326339
0.00283714
-0.000338643
0.00282721
-0.000351138
0.00281696
-0.000363798
0.00280642
-0.000376372
0.00279556
-0.000388916
0.00278442
-0.000400925
0.00277299
-0.000412731
0.00276132
-0.000423262
0.0027494
-0.000433608
0.00273734
-0.000441394
0.00272505
-0.000449617
0.00271278
-0.000452874
0.00270031
-0.000458745
0.0026881
-0.000454822
0.00267564
-0.000459322
0.00266386
-0.000443894
0.00265162
-0.000450727
-0.000416703
0.00307456
-0.000132406
0.00306981
-0.000134473
0.003065
-0.000136617
0.00306014
-0.00013885
0.00305523
-0.000141185
0.00305025
-0.000143636
0.00304521
-0.000146219
0.00304011
-0.000148947
0.00303493
-0.000151838
0.00302967
-0.000154907
0.00302434
-0.000158172
0.00301892
-0.00016165
0.0030134
-0.000165361
0.00300779
-0.000169323
0.00300207
-0.000173557
0.00299624
-0.000178082
0.00299029
-0.000182921
0.0029842
-0.000188094
0.00297797
-0.000193623
0.0029716
-0.000199528
0.00296506
-0.000205831
0.00295835
-0.000212551
0.00295145
-0.000219708
0.00294436
-0.000227318
0.00293706
-0.000235395
0.00292954
-0.00024395
0.00292178
-0.00025299
0.00291377
-0.000262516
0.00290551
-0.000272521
0.00289696
-0.000282994
0.00288814
-0.000293908
0.00287902
-0.000305235
0.00286959
-0.000316913
0.00285985
-0.000328904
0.00284979
-0.000341083
0.00283942
-0.000353423
0.00282873
-0.000365683
0.00281772
-0.000377911
0.00280643
-0.000389628
0.00279483
-0.000401136
0.002783
-0.000411426
0.0027709
-0.000421507
0.00275864
-0.000429144
0.00274617
-0.000437142
0.0027337
-0.000440404
0.00272103
-0.000446071
0.00270861
-0.00044241
0.00269595
-0.000446657
0.00268396
-0.000431906
0.00267152
-0.000438286
-0.000405545
0.00309855
-0.000127721
0.00309381
-0.000129736
0.00308902
-0.000131825
0.00308417
-0.000134001
0.00307927
-0.000136277
0.0030743
-0.000138666
0.00306926
-0.000141183
0.00306415
-0.000143842
0.00305898
-0.000146659
0.00305372
-0.00014965
0.00304838
-0.000152831
0.00304295
-0.000156221
0.00303742
-0.000159836
0.0030318
-0.000163696
0.00302606
-0.000167821
0.00302021
-0.00017223
0.00301423
-0.000176943
0.00300812
-0.000181981
0.00300186
-0.000187365
0.00299545
-0.000193116
0.00298887
-0.000199253
0.00298212
-0.000205797
0.00297517
-0.000212765
0.00296803
-0.000220173
0.00296067
-0.000228035
0.00295308
-0.000236363
0.00294526
-0.000245162
0.00293717
-0.000254434
0.00292882
-0.000264171
0.0029202
-0.000274365
0.00291127
-0.000284986
0.00290205
-0.000296011
0.00289251
-0.000307377
0.00288266
-0.000319048
0.00287248
-0.000330904
0.00286197
-0.000342915
0.00285114
-0.000354854
0.00283999
-0.000366757
0.00282854
-0.000378175
0.00281678
-0.000389378
0.00280477
-0.000399419
0.00279249
-0.000409228
0.00278006
-0.000416709
0.00276739
-0.000424476
0.00275473
-0.000427738
0.00274185
-0.000433199
0.00272924
-0.000429793
0.00271637
-0.00043379
0.00270417
-0.000419711
0.00269153
-0.000425645
-0.000394184
0.00312262
-0.000123051
0.00311789
-0.000125012
0.00311311
-0.000127045
0.00310828
-0.000129162
0.00310338
-0.000131377
0.00309841
-0.000133702
0.00309338
-0.000136151
0.00308828
-0.000138739
0.0030831
-0.00014148
0.00307784
-0.00014439
0.00307249
-0.000147486
0.00306706
-0.000150784
0.00306152
-0.000154301
0.00305588
-0.000158057
0.00305013
-0.000162069
0.00304426
-0.000166358
0.00303826
-0.000170942
0.00303212
-0.000175842
0.00302583
-0.000181078
0.00301938
-0.00018667
0.00301277
-0.000192638
0.00300597
-0.000199
0.00299898
-0.000205774
0.00299178
-0.000212976
0.00298436
-0.000220619
0.00297672
-0.000228713
0.00296882
-0.000237265
0.00296066
-0.000246277
0.00295223
-0.000255741
0.00294352
-0.000265648
0.0029345
-0.000275971
0.00292518
-0.000286686
0.00291553
-0.000297733
0.00290556