/*--------------------------------*- C++ -*----------------------------------*\
  =========                 |
  \\      /  F ield         | OpenFOAM: The Open Source CFD Toolbox
   \\    /   O peration     | Website:  https://openfoam.org
    \\  /    A nd           | Version:  7
     \\/     M anipulation  |
\*---------------------------------------------------------------------------*/
FoamFile
{
    version     2.0;
    format      ascii;
    class       surfaceScalarField;
    location    "5";
    object      phi;
}
// * * * * * * * * * * * * * * * * * * * * * * * * * * * * * * * * * * * * * //

dimensions      [0 3 -1 0 0 0 0];

internalField   nonuniform List<scalar> 
5135
(
-0.0118152
-0.000824567
-0.0117126
-0.000901087
-0.0116058
-0.000976881
-0.00105192
0.00187346
-0.00133897
0.00186881
-0.00126764
0.00186462
-0.00119547
0.00186093
-0.00112249
0.00185772
-0.00104871
0.00185501
-0.000974169
0.0018528
-0.000898877
0.00185109
-0.000822864
-0.000746156
0.00192393
-0.00140355
0.00191853
-0.00133357
0.00191362
-0.00126273
0.00190919
-0.00119105
0.00190527
-0.00111857
0.00190186
-0.0010453
0.00189896
-0.000971268
0.00189658
-0.000896495
0.00189472
-0.000821006
-0.000744826
0.00197665
-0.00146598
0.00197045
-0.00139736
0.00196476
-0.00132787
0.00195957
-0.00125754
0.00195489
-0.00118638
0.00195073
-0.00111441
0.0019471
-0.00104167
0.001944
-0.000968165
0.00194143
-0.000893927
0.0019394
-0.000818979
-0.000743345
0.00203174
-0.00152618
0.00202471
-0.00145895
0.00201818
-0.00139084
0.00201218
-0.00132187
0.0020067
-0.00125206
0.00200175
-0.00118143
0.00199734
-0.00111
0.00199347
-0.0010378
0.00199014
-0.000964843
0.00198738
-0.000891159
0.00198517
-0.00081677
-0.000741699
0.00208146
-0.00151825
0.00207405
-0.00145155
0.00206718
-0.00138397
0.00206084
-0.00131553
0.00205505
-0.00124626
0.00204981
-0.00117618
0.00204512
-0.00110531
0.002041
-0.00103367
0.00203744
-0.000961286
0.00203446
-0.000888175
0.00203205
-0.000814363
-0.000739876
0.00214085
-0.00157519
0.00213251
-0.00150991
0.00212471
-0.00144375
0.00211747
-0.00137672
0.00211078
-0.00130885
0.00210466
-0.00124014
0.00209911
-0.00117063
0.00209413
-0.00110034
0.00208974
-0.00102928
0.00208593
-0.000957477
0.00208271
-0.000884958
0.00208009
-0.000811744
-0.000737858
0.00220302
-0.00162967
0.00219369
-0.00156586
0.00218492
-0.00150114
0.00217671
-0.00143555
0.00216908
-0.00136909
0.00216202
-0.00130179
0.00215555
-0.00123367
0.00214967
-0.00116475
0.00214438
-0.00109505
0.0021397
-0.00102459
0.00213562
-0.0009534
0.00213216
-0.000881494
0.00212931
-0.000808897
-0.000735634
0.00226811
-0.00168163
0.00225773
-0.0016193
0.00224794
-0.00155606
0.00223872
-0.00149192
0.00223008
-0.00142691
0.00222204
-0.00136105
0.0022146
-0.00129435
0.00220776
-0.00122683
0.00220153
-0.00115852
0.00219592
-0.00108944
0.00219093
-0.0010196
0.00218657
-0.000949038
0.00218284
-0.000877765
0.00217975
-0.000805806
-0.000733186
0.00233624
-0.00173097
0.00232478
-0.00167016
0.0023139
-0.00160842
0.00230362
-0.00154577
0.00229393
-0.00148224
0.00228485
-0.00141783
0.00227638
-0.00135258
0.00226853
-0.0012865
0.00226131
-0.00121961
0.00225471
-0.00115193
0.00224876
-0.00108348
0.00224345
-0.00101429
0.00223878
-0.000944375
0.00223478
-0.000873756
0.00223143
-0.000802457
-0.000730501
0.00240755
-0.00177764
0.00239495
-0.00171837
0.00238295
-0.00165816
0.00237154
-0.00159702
0.00236076
-0.00153499
0.00235059
-0.00147207
0.00234104
-0.00140829
0.00233213
-0.00134367
0.00232386
-0.00127822
0.00231623
-0.00121198
0.00230926
-0.00114496
0.00230294
-0.00107717
0.00229729
-0.00100864
0.00229231
-0.000939395
0.00228801
-0.000869452
0.00228439
-0.000798834
-0.000727565
0.00249651
-0.00187831
0.00248214
-0.00182158
0.00246836
-0.00176387
0.00245519
-0.0017052
0.00244263
-0.0016456
0.00243069
-0.00158508
0.00241938
-0.00152368
0.00240871
-0.0014614
0.00239869
-0.00139826
0.00238932
-0.0013343
0.0023806
-0.00126951
0.00237256
-0.00120394
0.00236519
-0.00113758
0.0023585
-0.00107048
0.00235249
-0.00100264
0.00234718
-0.000934083
0.00234257
-0.000864838
0.00233866
-0.000794923
-0.000724362
0.00257569
-0.00191787
0.00256011
-0.00186273
0.00254512
-0.00180659
0.00253074
-0.00174949
0.00251698
-0.00169144
0.00250385
-0.00163247
0.00249136
-0.00157259
0.00247952
-0.00151184
0.00246833
-0.00145021
0.00245781
-0.00138774
0.00244797
-0.00132445
0.0024388
-0.00126035
0.00243032
-0.00119546
0.00242254
-0.0011298
0.00241546
-0.0010634
0.00240908
-0.000996262
0.00240342
-0.000928423
0.00239848
-0.000859897
0.00239427
-0.000790709
-0.000720879
0.00265838
-0.00195461
0.00264155
-0.00190105
0.00262532
-0.0018465
0.00260971
-0.00179097
0.00259471
-0.00173449
0.00258035
-0.00167708
0.00256664
-0.00161876
0.00255358
-0.00155954
0.00254119
-0.00149945
0.00252948
-0.0014385
0.00251845
-0.00137672
0.00250811
-0.00131411
0.00249848
-0.00125071
0.00248955
-0.00118653
0.00248134
-0.00112159
0.00247385
-0.00105591
0.00246709
-0.000989503
0.00246107
-0.0009224
0.00245579
-0.000854617
0.00245126
-0.000786177
-0.000717102
0.00274466
-0.00198856
0.00272657
-0.00193652
0.00270908
-0.00188355
0.00269219
-0.00182961
0.00267593
-0.00177471
0.0026603
-0.00171887
0.00264533
-0.00166211
0.00263102
-0.00160445
0.00261739
-0.0015459
0.00260443
-0.0014865
0.00259218
-0.00142624
0.00258062
-0.00136516
0.00256978
-0.00130327
0.00255966
-0.00124059
0.00255027
-0.00117714
0.00254162
-0.00111294
0.00253371
-0.001048
0.00252655
-0.000982345
0.00252015
-0.000916
0.00251452
-0.000848983
0.00250966
-0.000781314
-0.000713016
0.00283464
-0.00201942
0.00281526
-0.00196918
0.00279647
-0.00191774
0.00277829
-0.00186537
0.00276073
-0.00181205
0.00274381
-0.00175779
0.00272754
-0.0017026
0.00271195
-0.00164651
0.00269703
-0.00158953
0.0026828
-0.00153167
0.00266927
-0.00147297
0.00265646
-0.00141343
0.00264436
-0.00135307
0.00263301
-0.00129191
0.00262239
-0.00122997
0.00261252
-0.00116727
0.00260341
-0.00110383
0.00259506
-0.00103965
0.00258749
-0.000974775
0.0025807
-0.00090921
0.0025747
-0.000842981
0.00256949
-0.000776106
-0.000708609
0.00292844
-0.00204721
-0.00294966
0.00290774
-0.00199872
0.00288762
-0.00194907
0.00286812
-0.00189823
0.00284923
-0.00184648
0.00283098
-0.0017938
0.00281339
-0.00174019
0.00279647
-0.00168568
0.00278023
-0.00163027
0.00276468
-0.00157398
0.00274984
-0.00151684
0.00273573
-0.00145885
0.00272234
-0.00140004
0.0027097
-0.00134043
0.00269781
-0.00128002
0.00268668
-0.00121884
0.00267632
-0.00115691
0.00266674
-0.00109424
0.00265795
-0.00103086
0.00264995
-0.000966777
0.00264275
-0.000902016
0.00263637
-0.000836598
0.00263081
-0.000770541
-0.000703869
0.00300412
-0.0020252
-0.00302613
0.00298264
-0.00197725
0.00296178
-0.0019282
0.00294153
-0.00187799
0.00292193
-0.00182688
0.00290297
-0.00177485
0.00288469
-0.00172191
0.0028671
-0.00166808
0.0028502
-0.00161337
0.00283402
-0.0015578
0.00281856
-0.00150138
0.00280384
-0.00144413
0.00278987
-0.00138607
0.00277666
-0.00132722
0.00276422
-0.00126758
0.00275257
-0.00120719
0.0027417
-0.00114605
0.00273164
-0.00108418
0.00272239
-0.00102161
0.00271395
-0.000958341
0.00270634
-0.000894406
0.00269956
-0.000829821
0.00269363
-0.000764606
-0.000698781
0.00308166
-0.00200238
-0.00310449
0.0030594
-0.00195499
0.00303776
-0.00190656
0.00301676
-0.00185699
0.00299642
-0.00180653
0.00297674
-0.00175518
0.00295775
-0.00170292
0.00293947
-0.00164979
0.0029219
-0.0015958
0.00290506
-0.00154096
0.00288897
-0.00148529
0.00287363
-0.0014288
0.00285907
-0.00137151
0.00284528
-0.00131343
0.00283228
-0.00125459
0.00282009
-0.00119499
0.0028087
-0.00113467
0.00279814
-0.00107362
0.00278841
-0.00101188
0.00277953
-0.000949452
0.00277149
-0.000886366
0.0027643
-0.000822638
0.00275799
-0.000758287
-0.000693335
0.00316111
-0.00197872
-0.00318477
0.00313804
-0.00193192
0.00311561
-0.00188412
0.00309383
-0.00183522
0.00307273
-0.00178543
0.00305232
-0.00173476
0.00303261
-0.00168321
0.00301362
-0.0016308
0.00299536
-0.00157755
0.00297785
-0.00152345
0.00296111
-0.00146854
0.00294514
-0.00141283
0.00292996
-0.00135633
0.00291558
-0.00129905
0.00290201
-0.00124102
0.00288926
-0.00118225
0.00287735
-0.00112275
0.00286628
-0.00106255
0.00285607
-0.00100166
0.00284671
-0.000940099
0.00283823
-0.000877884
0.00283063
-0.000815037
0.00282392
-0.000751575
-0.00068752
0.00324251
-0.0019542
-0.00326703
0.00321861
-0.00190801
0.00319536
-0.00186088
0.00317279
-0.00181264
0.00315091
-0.00176355
0.00312974
-0.00171359
0.00310929
-0.00166276
0.00308957
-0.00161109
0.00307061
-0.00155859
0.00305242
-0.00150526
0.00303501
-0.00145113
0.0030184
-0.00139621
0.00300259
-0.00134052
0.0029876
-0.00128406
0.00297345
-0.00122686
0.00296014
-0.00116894
0.00294768
-0.0011103
0.00293609
-0.00105096
0.00292537
-0.000990945
0.00291554
-0.000930269
0.00290661
-0.00086895
0.00289858
-0.000807006
0.00289146
-0.000744457
-0.000681322
0.0033259
-0.00192881
-0.00335129
0.00330114
-0.00188325
0.00327706
-0.00183679
0.00325367
-0.00178926
0.00323099
-0.00174087
0.00320904
-0.00169163
0.00318783
-0.00164155
0.00316737
-0.00159064
0.00314769
-0.00153891
0.0031288
-0.00148637
0.00311071
-0.00143304
0.00309343
-0.00137894
0.00307698
-0.00132407
0.00306138
-0.00126846
0.00304662
-0.00121211
0.00303273
-0.00115505
0.00301972
-0.00109728
0.00300759
-0.00103883
0.00299637
-0.000979718
0.00298605
-0.00091995
0.00297665
-0.00085955
0.00296818
-0.000798534
0.00296064
-0.000736922
-0.000674733
0.00341132
-0.00190252
-0.00343761
0.00338568
-0.00185762
0.00336073
-0.00181184
0.00333651
-0.00176503
0.00331301
-0.00171737
0.00329026
-0.00166888
0.00326827
-0.00161956
0.00324706
-0.00156943
0.00322664
-0.00151849
0.00320703
-0.00146676
0.00318824
-0.00141425
0.00317028
-0.00136098
0.00315318
-0.00130697
0.00313694
-0.00125221
0.00312157
-0.00119674
0.00310709
-0.00114057
0.0030935
-0.0010837
0.00308083
-0.00102616
0.00306908
-0.000967967
0.00305826
-0.000909132
0.00304839
-0.000849673
0.00303946
-0.00078961
0.0030315
-0.000728959
-0.00066774
0.0034988
-0.0018753
-0.00352602
0.00347226
-0.00183108
0.00344643
-0.00178602
0.00342135
-0.00173994
0.00339701
-0.00169303
0.00337344
-0.00164531
0.00335065
-0.00159678
0.00332866
-0.00154744
0.00330748
-0.00149731
0.00328714
-0.00144641
0.00326763
-0.00139475
0.00324899
-0.00134234
0.00323121
-0.00128919
0.00321432
-0.00123532
0.00319832
-0.00118075
0.00318324
-0.00112548
0.00316907
-0.00106954
0.00315584
-0.00101293
0.00314355
-0.000955681
0.00313222
-0.000897801
0.00312186
-0.000839309
0.00311247
-0.000780222
0.00310407
-0.000720558
-0.000660335
0.00358839
-0.00184713
-0.00361656
0.00356092
-0.00180362
0.00353419
-0.00175929
0.00350822
-0.00171397
0.00348302
-0.00166783
0.00345861
-0.0016209
0.00343501
-0.00157317
0.00341222
-0.00152465
0.00339027
-0.00147536
0.00336917
-0.00142531
0.00334893
-0.00137451
0.00332958
-0.00132298
0.00331111
-0.00127073
0.00329356
-0.00121776
0.00327692
-0.00116411
0.00326122
-0.00110977
0.00324646
-0.00105478
0.00323265
-0.000999129
0.00321982
-0.000942847
0.00320796
-0.000885947
0.0031971
-0.000828446
0.00318724
-0.00077036
0.00317839
-0.000711707
-0.000652505
0.00368013
-0.00181799
-0.00370927
0.00365172
-0.0017752
0.00362406
-0.00173163
0.00359718
-0.00168709
0.0035711
-0.00164175
0.00354583
-0.00159563
0.00352138
-0.00154873
0.00349778
-0.00150105
0.00347504
-0.00145262
0.00345316
-0.00140344
0.00343218
-0.00135353
0.0034121
-0.0013029
0.00339293
-0.00125156
0.00337469
-0.00119953
0.0033574
-0.00114682
0.00334106
-0.00109344
0.00332569
-0.00103941
0.00331131
-0.000984741
0.00329791
-0.000929452
0.00328552
-0.000873557
0.00327415
-0.000817072
0.0032638
-0.000760013
0.00325449
-0.000702397
-0.000644243
0.00377407
-0.00178785
-0.00380421
0.00374468
-0.00174582
0.00371607
-0.00170302
0.00368827
-0.00165929
0.00366128
-0.00161476
0.00363513
-0.00156947
0.00360982
-0.00152342
0.00358538
-0.00147661
0.00356182
-0.00142906
0.00353916
-0.00138078
0.00351741
-0.00133178
0.00349658
-0.00128207
0.0034767
-0.00123167
0.00345777
-0.00118059
0.0034398
-0.00112885
0.00342282
-0.00107645
0.00340682
-0.00102342
0.00339184
-0.000969755
0.00337787
-0.000915485
0.00336493
-0.00086062
0.00335304
-0.000805176
0.00334219
-0.00074917
0.00333241
-0.000692617
0.00387025
-0.00175668
-0.00390141
0.00383986
-0.00171543
0.00381028
-0.00167344
0.00378152
-0.00163053
0.0037536
-0.00158685
0.00372655
-0.00154242
0.00370036
-0.00149723
0.00367506
-0.00145131
0.00365067
-0.00140467
0.0036272
-0.00135731
0.00360466
-0.00130924
0.00358308
-0.00126048
0.00356246
-0.00121105
0.00354281
-0.00116095
0.00352416
-0.0011102
0.00350651
-0.00105881
0.00348988
-0.00100679
0.00347429
-0.000954159
0.00345974
-0.000900932
0.00344624
-0.000847123
0.00343381
-0.000792747
0.00342246
-0.000737819
-0.000682357
0.0039687
-0.00172447
-0.00400092
0.0039373
-0.00168403
0.00390672
-0.00164285
0.00387698
-0.0016008
0.00384812
-0.00155798
0.00382013
-0.00151443
0.00379304
-0.00147015
0.00376687
-0.00142514
0.00374163
-0.00137942
0.00371733
-0.00133301
0.00369399
-0.0012859
0.00367162
-0.00123812
0.00365025
-0.00118967
0.00362987
-0.00114058
0.00361052
-0.00109084
0.0035922
-0.00104048
0.00357492
-0.000989509
0.0035587
-0.000937937
0.00354355
-0.000885781
0.00352948
-0.000833054
0.0035165
-0.000779772
0.00350463
-0.000725951
-0.000671606
0.00406949
-0.00169118
-0.00410278
0.00403704
-0.00165157
0.00400543
-0.00161125
0.0039747
-0.00157007
0.00394486
-0.00152814
0.00391593
-0.0014855
0.00388792
-0.00144214
0.00386085
-0.00139807
0.00383473
-0.0013533
0.00380958
-0.00130786
0.00378542
-0.00126174
0.00376226
-0.00121496
0.00374011
-0.00116753
0.003719
-0.00111946
0.00369892
-0.00107077
0.00367991
-0.00102147
0.00366196
-0.000971565
0.0036451
-0.000921077
0.00362934
-0.000870018
0.00361469
-0.000818401
0.00360116
-0.000766241
0.00358876
-0.000713553
-0.000660354
0.00417266
-0.0016568
-0.00420704
0.00413913
-0.00161805
0.00410648
-0.0015786
0.00407473
-0.00153832
0.00404389
-0.0014973
0.00401399
-0.00145559
0.00398503
-0.00141318
0.00395704
-0.00137008
0.00393003
-0.00132629
0.00390401
-0.00128184
0.00387901
-0.00123674
0.00385503
-0.00119098
0.0038321
-0.00114459
0.00381022
-0.00109758
0.00378941
-0.00104996
0.00376969
-0.00100175
0.00375107
-0.000952941
0.00373356
-0.000903565
0.00371717
-0.00085363
0.00370192
-0.000803151
0.00368782
-0.000752141
0.00367488
-0.000700615
-0.000648589
0.00427824
-0.0016213
-0.00431374
0.00424362
-0.00158343
0.0042099
-0.00154488
0.0041771
-0.00150552
0.00414524
-0.00146545
0.00411435
-0.00142469
0.00408442
-0.00138326
0.00405549
-0.00134114
0.00402757
-0.00129837
0.00400066
-0.00125494
0.0039748
-0.00121087
0.00394999
-0.00116617
0.00392625
-0.00112085
0.0039036
-0.00107493
0.00388204
-0.00102841
0.00386159
-0.0009813
0.00384227
-0.000933622
0.00382409
-0.000885386
0.00380707
-0.000836605
0.00379121
-0.000787291
0.00377653
-0.00073746
0.00376304
-0.000687125
-0.000636301
0.00438629
-0.00158465
-0.00442294
0.00435055
-0.00154769
0.00431574
-0.00151006
0.00428187
-0.00147165
0.00424897
-0.00143255
0.00421706
-0.00139278
0.00418615
-0.00135234
0.00415625
-0.00131125
0.00412739
-0.00126951
0.00409958
-0.00122713
0.00407284
-0.00118413
0.00404718
-0.00114051
0.00402262
-0.00109629
0.00399916
-0.00105148
0.00397684
-0.00100608
0.00395565
-0.000960116
0.00393563
-0.000913593
0.00391677
-0.000866526
0.00389909
-0.000818926
0.0038826
-0.000770808
0.00386733
-0.000722185
0.00385328
-0.000673071
-0.00062348
0.00449686
-0.00154682
-0.00453469
0.00445998
-0.0015108
0.00442404
-0.00147413
0.00438909
-0.0014367
0.00435512
-0.00139859
0.00432217
-0.00135983
0.00429025
-0.00132042
0.00425937
-0.00128037
0.00422956
-0.00123969
0.00420082
-0.0011984
0.00417318
-0.00115649
0.00414665
-0.00111398
0.00412124
-0.00107088
0.00409698
-0.00102721
0.00407387
-0.000982971
0.00405193
-0.000938176
0.00403117
-0.000892838
0.00401162
-0.000846969
0.00399327
-0.000800582
0.00397615
-0.000753689
0.00396027
-0.000706304
0.00394564
-0.000658441
-0.000610113
0.00461
-0.0015078
-0.00464902
0.00457195
-0.00147275
0.00453487
-0.00143705
0.0044988
-0.00140062
0.00446375
-0.00136354
0.00442974
-0.00132582
0.00439678
-0.00128747
0.0043649
-0.00124849
0.00433411
-0.0012089
0.00430442
-0.00116871
0.00427586
-0.00112793
0.00424844
-0.00108656
0.00422218
-0.00104462
0.00419708
-0.00100212
0.00417317
-0.000959061
0.00415046
-0.000915466
0.00412896
-0.000871342
0.0041087
-0.000826702
0.00408967
-0.000781557
0.0040719
-0.000735921
0.0040554
-0.000689805
0.00404018
-0.000643223
-0.00059619
0.00472576
-0.00146756
-0.004766
0.00468651
-0.0014335
0.00464827
-0.00139881
0.00461106
-0.00136341
0.0045749
-0.00132738
0.0045398
-0.00129072
0.00450579
-0.00125346
0.00447289
-0.00121558
0.0044411
-0.00117712
0.00441045
-0.00113806
0.00438095
-0.00109843
0.00435262
-0.00105823
0.00432547
-0.00101747
0.00429953
-0.00097617
0.0042748
-0.000934331
0.0042513
-0.000891967
0.00422905
-0.000849089
0.00420805
-0.000805709
0.00418833
-0.000761838
0.0041699
-0.000717488
0.00415277
-0.000672673
0.00413695
-0.000627406
-0.000581699
0.00484419
-0.00142607
-0.00488568
0.00480372
-0.00139304
0.00476429
-0.00135937
0.00472592
-0.00132504
0.00468862
-0.00129008
0.00465243
-0.00125452
0.00461734
-0.00121837
0.00458339
-0.00118163
0.00455058
-0.00114431
0.00451894
-0.00110642
0.00448848
-0.00106797
0.00445922
-0.00102897
0.00443118
-0.00098943
0.00440437
-0.000949359
0.0043788
-0.000908766
0.0043545
-0.000867664
0.00433148
-0.000826063
0.00430974
-0.000783974
0.00428931
-0.000741408
0.0042702
-0.000698379
0.00425243
-0.000654897
0.004236
-0.000610975
-0.000566628
0.00496534
-0.00138332
-0.0050081
0.00492364
-0.00135133
0.00488299
-0.00131873
0.00484343
-0.00128548
0.00480498
-0.00125163
0.00476766
-0.0012172
0.00473147
-0.00118219
0.00469645
-0.00114661
0.00466261
-0.00111047
0.00462996
-0.00107377
0.00459852
-0.00103654
0.00456832
-0.000998766
0.00453936
-0.000960471
0.00451166
-0.000921662
0.00448524
-0.000882348
0.00446012
-0.00084254
0.0044363
-0.000802247
0.00441381
-0.000761482
0.00439266
-0.000720255
0.00437286
-0.000678578
0.00435442
-0.000636462
0.00433737
-0.00059392
-0.000550965
0.00508928
-0.00133927
-0.00513332
0.0050463
-0.00130836
0.00500442
-0.00127685
0.00496366
-0.00124472
0.00492403
-0.001212
0.00488555
-0.00117872
0.00484825
-0.00114488
0.00481213
-0.00111049
0.00477723
-0.00107556
0.00474355
-0.0010401
0.00471112
-0.0010041
0.00467995
-0.000967594
0.00465006
-0.000930578
0.00462146
-0.000893063
0.00459417
-0.000855059
0.00456821
-0.000816577
0.00454359
-0.000777627
0.00452032
-0.000738218
0.00449843
-0.000698363
0.00447792
-0.000658071
0.00445882
-0.000617355
0.00444112
-0.000576227
-0.000534699
0.00521604
-0.0012939
-0.00526141
0.00517178
-0.0012641
0.00512864
-0.00123371
0.00508664
-0.00120272
0.00504581
-0.00117117
0.00500617
-0.00113907
0.00496772
-0.00110644
0.0049305
-0.00107327
0.00489451
-0.00103958
0.00485979
-0.00100537
0.00482634
-0.000970653
0.00479418
-0.000935437
0.00476333
-0.000899731
0.00473381
-0.000863543
0.00470564
-0.000826882
0.00467882
-0.00078976
0.00465338
-0.000752184
0.00462933
-0.000714166
0.00460668
-0.000675716
0.00458545
-0.000636845
0.00456566
-0.000597564
0.00454732
-0.000557884
-0.000517817
0.0053457
-0.0012472
-0.0053924
0.00530013
-0.00121852
0.0052557
-0.00118928
0.00521245
-0.00115947
0.0051704
-0.00112912
0.00512956
-0.00109823
0.00508995
-0.00106683
0.0050516
-0.00103492
0.00501451
-0.00100249
0.00497872
-0.000969575
0.00494423
-0.000936166
0.00491107
-0.000902275
0.00487925
-0.000867912
0.00484879
-0.000833084
0.00481971
-0.0007978
0.00479202
-0.00076207
0.00476574
-0.000725904
0.00474088
-0.000689311
0.00471747
-0.000652301
0.00469551
-0.000614885
0.00467502
-0.000577073
0.00465601
-0.000538877
-0.000500308
0.0054783
-0.00119913
-0.00552637
0.0054314
-0.00117162
0.00538567
-0.00114356
0.00534114
-0.00111495
0.00529784
-0.00108582
0.00525579
-0.00105618
0.005215
-0.00102604
0.00517549
-0.000995408
0.00513728
-0.000964289
0.0051004
-0.000932691
0.00506486
-0.000900622
0.00503067
-0.00086809
0.00499786
-0.000835102
0.00496645
-0.000801667
0.00493644
-0.000767794
0.00490786
-0.000733492
0.00488073
-0.000698769
0.00485505
-0.000663636
0.00483085
-0.000628101
0.00480814
-0.000592176
0.00478694
-0.00055587
0.00476726
-0.000519193
-0.000482158
0.00561392
-0.00114967
-0.00566337
0.00556566
-0.00112335
0.0055186
-0.0010965
0.00547278
-0.00106913
0.00542821
-0.00104125
0.00538492
-0.00101289
0.00534292
-0.000984043
0.00530224
-0.000954726
0.00526289
-0.000924942
0.0052249
-0.000894698
0.00518828
-0.000864002
0.00515305
-0.000832861
0.00511924
-0.000801283
0.00508684
-0.000769276
0.0050559
-0.000736848
0.00502641
-0.000704008
0.00499841
-0.000670764
0.0049719
-0.000637126
0.0049469
-0.000603103
0.00492343
-0.000568704
0.0049015
-0.00053394
0.00488113
-0.00049882
-0.000463357
0.00575261
-0.00109881
-0.00580347
0.00570296
-0.00107371
0.00565456
-0.0010481
0.00560742
-0.00102198
0.00556156
-0.000995393
0.00551701
-0.000968336
0.00547379
-0.00094082
0.00543191
-0.000912851
0.0053914
-0.000884434
0.00535228
-0.000855577
0.00531457
-0.000826287
0.00527828
-0.000796571
0.00524343
-0.000766437
0.00521005
-0.000735892
0.00517814
-0.000704944
0.00514774
-0.000673601
0.00511884
-0.000641872
0.00509148
-0.000609766
0.00506567
-0.00057729
0.00504142
-0.000544455
0.00501875
-0.00051127
0.00499768
-0.000477745
-0.00044389
0.00589443
-0.00104652
-0.00594672
0.00584338
-0.00102267
0.00579361
-0.000998321
0.00574512
-0.000973502
0.00569796
-0.000948227
0.00565213
-0.000922508
0.00560766
-0.000896351
0.00556457
-0.000869761
0.00552288
-0.000842744
0.00548261
-0.000815307
0.00544378
-0.000787457
0.00540641
-0.0007592
0.00537052
-0.000730544
0.00533612
-0.000701497
0.00530324
-0.000672064
0.0052719
-0.000642255
0.0052421
-0.000612077
0.00521387
-0.000581539
0.00518723
-0.000550648
0.00516219
-0.000519414
0.00513877
-0.000487847
0.00511698
-0.000455954
-0.000423747
0.00603944
-0.000992773
-0.00609319
0.00598698
-0.0009702
0.00593581
-0.000947153
0.00588596
-0.000923659
0.00583747
-0.000899731
0.00579034
-0.000875381
0.0057446
-0.000850614
0.00570028
-0.000825436
0.00565739
-0.000799852
0.00561595
-0.000773869
0.00557599
-0.000747493
0.00553752
-0.00072073
0.00550056
-0.000693588
0.00546514
-0.000666073
0.00543126
-0.000638192
0.00539896
-0.000609953
0.00536825
-0.000581363
0.00533914
-0.00055243
0.00531165
-0.000523162
0.0052858
-0.000493568
0.00526161
-0.000463655
0.00523909
-0.000433434
-0.000402914
0.00618772
-0.000937556
-0.00624294
0.00613381
-0.00091629
0.00608123
-0.000894572
0.00603001
-0.000872432
0.00598016
-0.000849883
0.00593171
-0.000826934
0.00588469
-0.00080359
0.00583911
-0.000779856
0.005795
-0.000755739
0.00575237
-0.000731244
0.00571125
-0.000706376
0.00567167
-0.000681142
0.00563363
-0.000655549
0.00559716
-0.000629603
0.00556228
-0.00060331
0.005529
-0.000576678
0.00549735
-0.000549713
0.00546734
-0.000522424
0.005439
-0.000494817
0.00541233
-0.000466901
0.00538736
-0.000438683
0.0053641
-0.000410173
-0.000381379
0.00633934
-0.000880846
-0.00639605
0.00628396
-0.000860916
0.00622995
-0.000840558
0.00617732
-0.000819803
0.0061261
-0.000798663
0.00607631
-0.000777147
0.00602798
-0.000755259
0.00598113
-0.000733003
0.00593578
-0.000710386
0.00589194
-0.000687412
0.00584966
-0.000664088
0.00580893
-0.000640419
0.00576979
-0.000616411
0.00573226
-0.000592069
0.00569635
-0.000567402
0.00566209
-0.000542414
0.00562949
-0.000517112
0.00559857
-0.000491505
0.00556935
-0.000465598
0.00554185
-0.000439399
0.00551608
-0.000412916
0.00549207
-0.000386158
-0.000359131
0.00649435
-0.000822622
-0.00655257
0.00643749
-0.000804058
0.00638202
-0.00078509
0.00632797
-0.000765752
0.00627536
-0.000746053
0.00622422
-0.000726001
0.00617456
-0.000705601
0.00612641
-0.000684857
0.0060798
-0.000663774
0.00603474
-0.000642357
0.00599127
-0.000620611
0.00594939
-0.000598542
0.00590913
-0.000576154
0.00587052
-0.000553455
0.00583357
-0.00053045
0.0057983
-0.000507144
0.00576473
-0.000483544
0.00573288
-0.000459658
0.00570278
-0.00043549
0.00567442
-0.000411049
0.00564785
-0.000386342
0.00562307
-0.000361375
-0.000336158
0.00665283
-0.000762867
-0.00671259
0.00659447
-0.000745697
0.00653753
-0.00072815
0.00648204
-0.000710259
0.00642802
-0.000692033
0.00637549
-0.000673478
0.00632449
-0.000654598
0.00627503
-0.000635399
0.00622714
-0.000615884
0.00618084
-0.000596058
0.00613616
-0.000575926
0.00609311
-0.000555493
0.00605172
-0.000534763
0.00601201
-0.000513743
0.005974
-0.000492438
0.00593771
-0.000470853
0.00590315
-0.000448994
0.00587036
-0.000426867
0.00583935
-0.00040448
0.00581014
-0.000381837
0.00578275
-0.000358946
0.00575718
-0.000335813
-0.000312447
0.00681486
-0.000701562
-0.00687616
0.00675498
-0.000685815
0.00669654
-0.000669718
0.00663959
-0.000653305
0.00658414
-0.000636583
0.00653022
-0.000619557
0.00647786
-0.000602232
0.00642707
-0.000584611
0.00637788
-0.000566699
0.00633032
-0.000548499
0.00628441
-0.000530016
0.00624018
-0.000511255
0.00619763
-0.00049222
0.00615681
-0.000472917
0.00611772
-0.00045335
0.00608039
-0.000433524
0.00604484
-0.000413446
0.00601109
-0.00039312
0.00597917
-0.000372552
0.00594908
-0.000351748
0.00592085
-0.000330715
0.00589449
-0.000309459
-0.000287987
0.0069805
-0.000638688
-0.00704337
0.00691908
-0.000624394
0.00685914
-0.000609778
0.00680071
-0.000594874
0.00674381
-0.000579687
0.00668848
-0.000564223
0.00663473
-0.000548485
0.00658259
-0.000532476
0.00653209
-0.0005162
0.00648326
-0.000499661
0.0064361
-0.000482864
0.00639066
-0.000465811
0.00634695
-0.000448509
0.00630499
-0.00043096
0.00626481
-0.00041317
0.00622643
-0.000395143
0.00618987
-0.000376885
0.00615515
-0.000358399
0.00612229
-0.000339693
0.00609131
-0.000320771
0.00606224
-0.000301638
0.00603508
-0.000282301
-0.000262766
0.00714983
-0.00057423
-0.00721429
0.00708685
-0.000561417
0.00702539
-0.000548312
0.00696546
-0.000534948
0.0069071
-0.000521328
0.00685033
-0.000507457
0.00679519
-0.000493339
0.00674169
-0.000478976
0.00668986
-0.000464371
0.00663973
-0.000449529
0.00659132
-0.000434453
0.00654465
-0.000419146
0.00649975
-0.000403613
0.00645665
-0.000387857
0.00641536
-0.000371882
0.00637591
-0.000355694
0.00633833
-0.000339296
0.00630262
-0.000322692
0.00626882
-0.000305889
0.00623693
-0.00028889
0.006207
-0.000271701
0.00617902
-0.000254327
-0.000236774
0.00732292
-0.000508173
-0.00738898
0.00725837
-0.00049687
0.00719537
-0.000485306
0.00713393
-0.000473511
0.00707409
-0.000461489
0.00701588
-0.000449244
0.00695932
-0.000436778
0.00690443
-0.000424095
0.00685126
-0.000411196
0.00679982
-0.000398086
0.00675013
-0.000384767
0.00670223
-0.000371242
0.00665613
-0.000357516
0.00661186
-0.000343591
0.00656945
-0.000329472
0.00652892
-0.000315162
0.00649029
-0.000300665
0.00645358
-0.000285985
0.00641882
-0.000271126
0.00638602
-0.000256094
0.00635522
-0.000240892
0.00632641
-0.000225526
-0.000209999
0.00749985
-0.000440502
-0.00756752
0.00743372
-0.000430737
0.00736915
-0.000420743
0.00730619
-0.000410549
0.00724486
-0.000400156
0.00718518
-0.000389568
0.00712719
-0.000378788
0.00707091
-0.000367817
0.00701638
-0.000356659
0.00696361
-0.000345315
0.00691263
-0.00033379
0.00686347
-0.000322085
0.00681616
-0.000310203
0.00677071
-0.000298148
0.00672717
-0.000285924
0.00668554
-0.000273532
0.00664585
-0.000260977
0.00660813
-0.000248263
0.00657239
-0.000235393
0.00653867
-0.00022237
0.00650698
-0.0002092
0.00647734
-0.000195886
-0.000182432
0.00768069
-0.000371205
-0.00774998
0.00761296
-0.000363005
0.00754682
-0.000354611
0.00748232
-0.000346047
0.00741948
-0.000337314
0.00735833
-0.000328415
0.00729889
-0.000319352
0.0072412
-0.000310128
0.00718529
-0.000300744
0.00713118
-0.000291203
0.00707889
-0.000281507
0.00702847
-0.000271658
0.00697992
-0.000261659
0.00693329
-0.000251514
0.00688859
-0.000241223
0.00684585
-0.000230791
0.00680509
-0.00022022
0.00676634
-0.000209514
0.00672962
-0.000198675
0.00669496
-0.000187707
0.00666237
-0.000176613
0.00663188
-0.000165398
-0.000154063
0.00786551
-0.000300271
-0.00793644
0.00779617
-0.000293665
0.00772846
-0.000286898
0.0076624
-0.000279993
0.00759804
-0.000272949
0.00753539
-0.00026577
0.0074745
-0.000258458
0.00741538
-0.000251013
0.00735808
-0.000243437
0.00730261
-0.000235733
0.007249
-0.000227903
0.00719729
-0.000219947
0.0071475
-0.00021187
0.00709966
-0.000203672
0.0070538
-0.000195356
0.00700993
-0.000186925
0.00696809
-0.00017838
0.0069283
-0.000169725
0.00689059
-0.000160962
0.00685498
-0.000152094
0.00682148
-0.000143123
0.00679014
-0.000134052
-0.000124885
0.00805439
-0.000227692
-0.00812697
0.00798343
-0.000222704
0.00791412
-0.000217593
0.0078465
-0.000212374
0.0077806
-0.00020705
0.00771645
-0.000201622
0.00765409
-0.00019609
0.00759353
-0.000190457
0.00753482
-0.000184724
0.00747798
-0.000178892
0.00742304
-0.000172963
0.00737003
-0.000166939
0.00731898
-0.000160821
0.00726992
-0.000154611
0.00722287
-0.00014831
0.00717787
-0.000141922
0.00713493
-0.000135446
0.0070941
-0.000128886
0.00705538
-0.000122244
0.0070188
-0.000115521
0.0069844
-0.000108719
0.00695219
-0.000101842
-9.48906e-05
0.00824738
-0.000153459
-0.00832161
0.00817479
-0.000150114
0.00810388
-0.000146684
0.00803469
-0.00014318
0.00796724
-0.000139603
0.00790157
-0.000135954
0.00783772
-0.000132235
0.00777571
-0.000128447
0.00771557
-0.000124589
0.00765735
-0.000120665
0.00760106
-0.000116675
0.00754674
-0.000112619
0.00749442
-0.0001085
0.00744412
-0.000104317
0.00739589
-0.000100074
0.00734974
-9.57706e-05
0.0073057
-9.14082e-05
0.0072638
-8.69884e-05
0.00722407
-8.25125e-05
0.00718653
-7.79818e-05
0.00715121
-7.33979e-05
0.00711813
-6.87625e-05
-6.40768e-05
0.00844455
-7.75655e-05
-0.00852045
0.00837032
-7.58853e-05
0.0082978
-7.41598e-05
0.00822702
-7.23953e-05
0.00815801
-7.0593e-05
0.00809081
-6.87536e-05
0.00802545
-6.68776e-05
0.00796197
-6.4966e-05
0.0079004
-6.30193e-05
0.00784077
-6.10384e-05
0.00778312
-5.90234e-05
0.00772748
-5.69754e-05
0.00767387
-5.48948e-05
0.00762234
-5.27823e-05
0.0075729
-5.06384e-05
0.00752559
-4.8464e-05
0.00748044
-4.62597e-05
0.00743748
-4.4026e-05
0.00739673
-4.17638e-05
0.00735823
-3.94738e-05
0.00732198
-3.71566e-05
0.00728803
-3.48133e-05
0.00864596
-0.00872352
0.00857007
0.00849591
0.00842352