/*--------------------------------*- C++ -*----------------------------------*\
  =========                 |
  \\      /  F ield         | OpenFOAM: The Open Source CFD Toolbox
   \\    /   O peration     | Website:  https://openfoam.org
    \\  /    A nd           | Version:  7
     \\/     M anipulation  |
\*---------------------------------------------------------------------------*/
FoamFile
{
    version     2.0;
    format      ascii;
    class       volVectorField;
    location    "5";
    object      U;
}
// * * * * * * * * * * * * * * * * * * * * * * * * * * * * * * * * * * * * * //

dimensions      [0 1 -1 0 0 0 0];

internalField   nonuniform List<vector> 
2625
(
(1.14478 0.194788 -5.39228e-21)
(1.13858 0.195624 1.18259e-20)
(1.13235 0.196317 -1.84654e-21)
(1.12609 0.196867 8.94875e-21)
(1.10167 0.187412 2.04612e-20)
(1.10771 0.187448 -1.77016e-21)
(1.11374 0.187346 -1.38889e-20)
(1.11977 0.187108 3.23526e-20)
(1.12579 0.186736 3.01517e-20)
(1.13178 0.18623 -5.64399e-21)
(1.13776 0.185592 3.88622e-21)
(1.14371 0.184825 1.09589e-20)
(1.14964 0.183929 -1.72055e-21)
(1.09598 0.184338 2.04465e-20)
(1.10194 0.184519 -2.17683e-21)
(1.10789 0.184565 3.598e-21)
(1.11385 0.184477 4.49479e-21)
(1.1198 0.184257 -1.55121e-20)
(1.12573 0.183905 2.22789e-21)
(1.13166 0.183423 1.49251e-21)
(1.13756 0.182813 -4.12855e-21)
(1.14345 0.182076 2.41762e-21)
(1.1493 0.181213 4.67632e-21)
(1.09051 0.181193 -2.69114e-21)
(1.09637 0.181501 -4.92992e-21)
(1.10224 0.181678 -6.81925e-21)
(1.10811 0.181724 -1.72059e-21)
(1.11398 0.18164 1.73334e-21)
(1.11984 0.181428 -9.76257e-21)
(1.1257 0.181089 -8.67724e-22)
(1.13155 0.180624 5.39567e-21)
(1.13738 0.180034 6.67488e-22)
(1.14319 0.17932 2.14105e-21)
(1.14898 0.178485 -1.60025e-21)
(1.08532 0.177954 8.6793e-21)
(1.09106 0.178374 -2.66261e-21)
(1.09682 0.178667 -1.77159e-20)
(1.10259 0.178834 2.05585e-20)
(1.10837 0.178876 2.13389e-20)
(1.11415 0.178793 5.45952e-21)
(1.11993 0.178586 4.17207e-22)
(1.12571 0.178257 -1.51953e-20)
(1.13148 0.177805 -1.91225e-20)
(1.13723 0.177233 5.80932e-21)
(1.14296 0.176541 -5.08182e-21)
(1.14867 0.175731 4.87509e-21)
(1.08604 0.175167 1.43713e-21)
(1.09168 0.175562 2.43657e-20)
(1.09734 0.175836 -1.13468e-20)
(1.10301 0.17599 -1.66118e-20)
(1.10869 0.176024 -2.2028e-20)
(1.11438 0.175938 1.83347e-20)
(1.12007 0.175733 1.77587e-21)
(1.12575 0.175411 4.55627e-21)
(1.13143 0.174971 2.53579e-20)
(1.1371 0.174414 -1.54936e-21)
(1.14276 0.173742 -6.2202e-21)
(1.14839 0.172954 -2.52204e-21)
(1.08131 0.171918 -3.91588e-20)
(1.08682 0.172398 -3.53496e-21)
(1.09235 0.172763 -2.83602e-20)
(1.0979 0.173014 8.65126e-21)
(1.10347 0.173151 -1.33532e-21)
(1.10906 0.173173 -4.40711e-21)
(1.11465 0.173082 -2.82149e-20)
(1.12024 0.172876 2.07897e-20)
(1.12584 0.172557 1.0277e-20)
(1.13143 0.172125 -1.65537e-20)
(1.13701 0.171581 4.11971e-22)
(1.14258 0.170926 8.07784e-21)
(1.14813 0.170159 -2.43235e-21)
(1.07689 0.168659 2.9175e-20)
(1.08226 0.169206 -7.72654e-22)
(1.08765 0.169647 -7.54598e-21)
(1.09308 0.169979 2.3203e-20)
(1.09852 0.170204 1.25086e-20)
(1.10399 0.17032 2.3655e-20)
(1.10947 0.170327 2.17937e-21)
(1.11496 0.170226 7.37562e-21)
(1.12045 0.170016 6.37888e-21)
(1.12595 0.169697 -1.43191e-20)
(1.13145 0.169271 1.03863e-20)
(1.13694 0.168737 9.11969e-22)
(1.14242 0.168096 1.16425e-21)
(1.14789 0.167348 -2.5724e-22)
(1.07279 0.165418 4.65198e-21)
(1.07801 0.166014 -4.05553e-21)
(1.08326 0.166513 -9.52932e-21)
(1.08854 0.166911 8.37761e-21)
(1.09385 0.167208 -2.33991e-20)
(1.09919 0.167403 -3.06595e-21)
(1.10455 0.167496 -2.46471e-20)
(1.10992 0.167485 2.29245e-20)
(1.11531 0.167371 4.4387e-21)
(1.12071 0.167154 -1.73359e-20)
(1.12611 0.166834 4.17787e-21)
(1.13151 0.16641 -1.51814e-20)
(1.1369 0.165883 -3.06771e-22)
(1.14229 0.165254 2.36444e-21)
(1.14767 0.164523 4.84912e-21)
(1.069 0.162215 3.47716e-20)
(1.07406 0.162845 -2.07862e-20)
(1.07916 0.163385 -1.54579e-20)
(1.0843 0.163833 3.02601e-20)
(1.08947 0.164188 -1.91694e-20)
(1.09467 0.164448 2.39797e-20)
(1.0999 0.164611 -1.37528e-20)
(1.10515 0.164678 -6.93653e-21)
(1.11042 0.164647 -1.31334e-20)
(1.1157 0.164519 1.85324e-21)
(1.12099 0.164292 -3.99586e-21)
(1.12629 0.163967 1.14537e-20)
(1.1316 0.163544 1.08377e-20)
(1.1369 0.163022 2.00635e-21)
(1.14219 0.162403 -1.1943e-21)
(1.14748 0.161686 -1.78383e-21)
(1.06552 0.159067 -2.2209e-20)
(1.07042 0.159716 4.85095e-22)
(1.07537 0.160284 -9.07356e-21)
(1.08036 0.160768 -8.22737e-21)
(1.08538 0.161166 -5.09488e-22)
(1.09044 0.161476 8.21583e-21)
(1.09553 0.161697 -2.53763e-20)
(1.10065 0.161827 1.08857e-20)
(1.10579 0.161867 1.22074e-21)
(1.11095 0.161814 1.89742e-21)
(1.11613 0.161669 6.27278e-21)
(1.12132 0.16143 8.79171e-21)
(1.12651 0.161099 1.87013e-21)
(1.13172 0.160674 -5.34863e-22)
(1.13692 0.160155 -1.21303e-20)
(1.14212 0.159543 -3.4064e-21)
(1.14731 0.158838 -6.6167e-21)
(1.05762 0.155253 2.20887e-20)
(1.06232 0.155981 -3.31598e-20)
(1.06707 0.156638 3.46372e-20)
(1.07187 0.157222 -5.44699e-21)
(1.0767 0.157729 -1.61538e-20)
(1.08158 0.158158 7.56191e-22)
(1.08649 0.158506 2.90432e-21)
(1.09144 0.158771 -1.69195e-20)
(1.09642 0.158953 3.75855e-20)
(1.10143 0.15905 1.50803e-20)
(1.10646 0.159061 -1.99676e-21)
(1.11152 0.158984 1.0455e-20)
(1.11659 0.158821 -7.90123e-21)
(1.12167 0.158569 -1.89957e-20)
(1.12677 0.158229 -1.3267e-20)
(1.13187 0.157801 4.85111e-22)
(1.13697 0.157284 9.48125e-21)
(1.14207 0.156677 4.62822e-21)
(1.14717 0.155982 1.02317e-20)
(1.05484 0.152234 -3.77051e-21)
(1.0594 0.152958 -2.55381e-20)
(1.06399 0.153616 1.96151e-20)
(1.06864 0.154207 9.64296e-21)
(1.07333 0.154728 1.04147e-20)
(1.07805 0.155177 8.75435e-21)
(1.08282 0.155551 -1.06306e-20)
(1.08763 0.15585 -3.93829e-21)
(1.09247 0.156072 3.95287e-20)
(1.09734 0.156214 -3.08824e-21)
(1.10224 0.156277 2.35953e-23)
(1.10716 0.156258 3.07282e-20)
(1.11211 0.156158 -1.5527e-20)
(1.11708 0.155975 4.50319e-21)
(1.12206 0.155709 2.07698e-20)
(1.12705 0.155359 -7.55148e-21)
(1.13205 0.154926 3.73324e-21)
(1.13705 0.154408 1.5117e-21)
(1.14206 0.153806 -4.33514e-21)
(1.14706 0.153119 -1.01177e-20)
(1.05229 0.149272 -1.06174e-20)
(1.05671 0.14999 -1.3392e-20)
(1.06117 0.150646 3.39944e-20)
(1.06567 0.151239 5.4343e-21)
(1.07021 0.151767 -4.16197e-20)
(1.0748 0.152228 1.22282e-20)
(1.07942 0.152622 -4.40627e-21)
(1.08409 0.152944 2.84827e-20)
(1.08878 0.153196 -7.84154e-21)
(1.09352 0.153374 -1.38022e-20)
(1.09828 0.153478 -1.677e-20)
(1.10307 0.153507 -2.14569e-20)
(1.10789 0.153459 -1.36458e-20)
(1.11273 0.153334 -1.9342e-21)
(1.11759 0.153131 -1.20156e-21)
(1.12247 0.152849 -6.12726e-21)
(1.12736 0.152489 9.27772e-21)
(1.13225 0.152049 -4.9372e-21)
(1.13716 0.15153 -1.67204e-21)
(1.14206 0.15093 3.70413e-21)
(1.14696 0.150251 4.30142e-21)
(1.04999 0.146349 -1.83106e-20)
(1.05425 0.147065 5.37534e-21)
(1.05858 0.147719 -6.84805e-21)
(1.06294 0.148312 -6.44196e-21)
(1.06734 0.148845 -2.32247e-20)
(1.07179 0.149314 -1.1695e-20)
(1.07627 0.149719 -3.096e-20)
(1.0808 0.15006 2.27133e-20)
(1.08536 0.150333 -2.46122e-21)
(1.08995 0.150539 -1.86323e-20)
(1.09458 0.150675 -2.36994e-21)
(1.09924 0.150742 -4.74594e-21)
(1.10393 0.150737 1.88906e-20)
(1.10864 0.15066 7.92954e-21)
(1.11338 0.150511 -1.12541e-21)
(1.11813 0.150287 8.72562e-22)
(1.1229 0.14999 -7.97354e-21)
(1.12769 0.149618 -7.94978e-21)
(1.13248 0.149172 -4.46293e-21)
(1.13728 0.148649 1.32079e-21)
(1.14209 0.148051 -3.45964e-21)
(1.14689 0.147377 -1.69051e-21)
(1.04787 0.143453 2.94119e-20)
(1.05202 0.144168 1.48591e-20)
(1.05619 0.144825 1.53954e-20)
(1.06043 0.145419 -6.23677e-21)
(1.0647 0.145954 4.18195e-21)
(1.06901 0.146429 3.21083e-20)
(1.07336 0.146844 4.3384e-20)
(1.07775 0.147197 -4.72615e-21)
(1.08218 0.147487 2.21856e-20)
(1.08664 0.147714 1.00792e-20)
(1.09113 0.147876 1.72019e-20)
(1.09566 0.147973 -2.4023e-20)
(1.10021 0.148003 4.33505e-21)
(1.1048 0.147966 -4.34718e-21)
(1.10941 0.147861 -2.89591e-20)
(1.11404 0.147687 -2.28254e-21)
(1.11869 0.147444 -5.6332e-21)
(1.12336 0.147131 -1.07597e-20)
(1.12804 0.146747 8.68514e-21)
(1.13273 0.146292 1.3314e-21)
(1.13744 0.145767 -2.52337e-22)
(1.14214 0.145169 -3.9878e-21)
(1.14685 0.1445 4.0006e-22)
(1.04555 0.140585 -5.40766e-20)
(1.04996 0.14129 6.28772e-22)
(1.05403 0.141948 -1.57884e-20)
(1.05811 0.142548 -2.12265e-20)
(1.06226 0.143086 1.06472e-20)
(1.06645 0.143567 -5.87327e-20)
(1.07067 0.143989 1.53971e-22)
(1.07493 0.144353 -2.54613e-20)
(1.07922 0.144656 9.87744e-21)
(1.08355 0.1449 -1.46001e-20)
(1.08792 0.145083 -2.304e-20)
(1.09231 0.145204 -1.40272e-20)
(1.09674 0.145263 7.14339e-21)
(1.1012 0.145259 1.14113e-20)
(1.10568 0.145191 1.28045e-21)
(1.11019 0.145059 9.88912e-21)
(1.11472 0.144862 2.31547e-20)
(1.11926 0.144599 -8.54158e-21)
(1.12383 0.14427 2.4445e-20)
(1.12841 0.143874 -2.20947e-21)
(1.13301 0.143412 2.03475e-21)
(1.13761 0.142882 -6.63635e-21)
(1.14221 0.142284 1.3525e-21)
(1.14682 0.141619 2.72164e-22)
(1.04772 0.138431 3.0197e-20)
(1.05202 0.139083 -9.6065e-21)
(1.05602 0.139686 1.57051e-20)
(1.06001 0.140233 6.97792e-21)
(1.06408 0.140719 -7.47896e-21)
(1.06818 0.141149 1.22966e-20)
(1.07231 0.141522 -2.03126e-20)
(1.07648 0.141838 6.45419e-21)
(1.08069 0.142096 3.11794e-21)
(1.08492 0.142296 9.88148e-21)
(1.08919 0.142438 4.82652e-21)
(1.09349 0.142521 3.27119e-20)
(1.09782 0.142544 -4.85959e-21)
(1.10218 0.142508 -7.13802e-21)
(1.10656 0.142411 1.15213e-20)
(1.11097 0.142252 -2.67042e-21)
(1.1154 0.142033 2.36609e-21)
(1.11985 0.141751 4.03166e-21)
(1.12432 0.141407 -4.516e-21)
(1.1288 0.140999 5.02397e-21)
(1.13329 0.140529 3.60725e-21)
(1.13779 0.139995 5.26634e-21)
(1.1423 0.139397 -2.62279e-23)
(1.14681 0.138735 4.22376e-21)
(1.04986 0.136229 1.32049e-20)
(1.05406 0.13683 -3.74954e-20)
(1.05798 0.137381 8.64457e-21)
(1.0619 0.137878 3.50729e-21)
(1.06588 0.138316 1.53924e-20)
(1.0699 0.138699 2.26263e-20)
(1.07394 0.139026 2.36593e-20)
(1.07802 0.139297 -1.25596e-20)
(1.08214 0.139513 2.33036e-21)
(1.08628 0.139673 -2.84059e-20)
(1.09046 0.139776 -1.28449e-20)
(1.09467 0.139824 -2.81342e-21)
(1.0989 0.139814 3.70236e-20)
(1.10316 0.139747 -1.14665e-20)
(1.10745 0.139622 -2.54667e-20)
(1.11176 0.13944 2.09201e-20)
(1.11609 0.139199 -1.78618e-20)
(1.12045 0.138899 7.70808e-21)
(1.12481 0.13854 -1.02674e-21)
(1.1292 0.138122 -3.60228e-21)
(1.13359 0.137644 -6.94155e-22)
(1.138 0.137106 1.58765e-21)
(1.14241 0.136507 5.75664e-21)
(1.14682 0.135848 3.36806e-22)
(1.05198 0.133978 6.17408e-21)
(1.05608 0.13453 1.30001e-20)
(1.05992 0.135033 -1.68513e-20)
(1.06375 0.135482 -4.96397e-21)
(1.06766 0.135875 -2.13612e-21)
(1.07159 0.136214 -9.98566e-21)
(1.07555 0.136498 -7.38757e-21)
(1.07955 0.136729 -1.17365e-20)
(1.08357 0.136905 -1.0025e-20)
(1.08763 0.137027 3.27473e-20)
(1.09172 0.137096 -6.99017e-21)
(1.09583 0.13711 5.22899e-21)
(1.09998 0.137069 -1.07003e-20)
(1.10414 0.136974 1.62882e-20)
(1.10834 0.136824 -2.30897e-21)
(1.11255 0.136619 -2.26757e-20)
(1.11679 0.136358 1.7729e-20)
(1.12105 0.136042 4.96119e-21)
(1.12532 0.13567 3.94289e-21)
(1.12961 0.135241 2.26046e-22)
(1.1339 0.134755 1.91173e-21)
(1.13821 0.134213 -9.44493e-21)
(1.14253 0.133614 -4.77181e-21)
(1.14685 0.132957 -4.13798e-21)
(1.05406 0.131678 -1.11217e-20)
(1.05806 0.132184 -8.16066e-21)
(1.06183 0.13264 -1.77766e-20)
(1.06559 0.133046 -7.03304e-21)
(1.0694 0.133396 -2.18478e-20)
(1.07326 0.133693 2.00389e-23)
(1.07714 0.133938 4.38677e-21)
(1.08105 0.13413 1.79219e-20)
(1.08499 0.13427 8.71041e-22)
(1.08896 0.134358 4.52284e-21)
(1.09296 0.134394 2.36006e-20)
(1.09699 0.134378 2.10211e-21)
(1.10104 0.134309 -1.90591e-20)
(1.10512 0.134188 5.22428e-21)
(1.10922 0.134015 2.9362e-20)
(1.11334 0.133789 -1.37676e-21)
(1.11749 0.13351 -5.10735e-21)
(1.12165 0.133178 -2.39034e-21)
(1.12583 0.132793 4.34827e-23)
(1.13002 0.132355 2.22789e-21)
(1.13422 0.131863 1.19147e-21)
(1.13844 0.131317 3.816e-21)
(1.14266 0.130718 4.43718e-21)
(1.14689 0.130064 6.62093e-22)
(1.05611 0.129329 -2.81796e-20)
(1.06002 0.129791 1.41622e-20)
(1.06371 0.130204 6.20544e-21)
(1.06739 0.130567 5.8456e-21)
(1.07113 0.130877 1.80047e-20)
(1.0749 0.131136 2.67566e-20)
(1.0787 0.131344 -1.65891e-20)
(1.08253 0.131501 2.98644e-20)
(1.08638 0.131608 2.44805e-20)
(1.09027 0.131664 -3.92292e-22)
(1.09419 0.13167 4.48185e-21)
(1.09813 0.131626 -1.63554e-20)
(1.10209 0.131531 1.68621e-20)
(1.10608 0.131387 -2.06309e-20)
(1.11009 0.131192 -1.452e-20)
(1.11413 0.130947 2.03081e-21)
(1.11818 0.130652 4.91455e-22)
(1.12225 0.130306 -2.14418e-21)
(1.12634 0.12991 -9.58353e-21)
(1.13044 0.129463 5.72341e-22)
(1.13455 0.128966 -8.92216e-21)
(1.13867 0.128417 1.25639e-21)
(1.1428 0.127818 -4.67302e-21)
(1.14693 0.127167 1.33207e-21)
(1.05813 0.126932 7.44057e-21)
(1.06194 0.127352 -6.68239e-21)
(1.06556 0.127723 3.98917e-21)
(1.06916 0.128047 6.54069e-21)
(1.07282 0.128319 1.07979e-20)
(1.07651 0.128542 -3.11687e-20)
(1.08023 0.128716 3.10689e-20)
(1.08398 0.12884 -1.70048e-20)
(1.08776 0.128916 -5.28081e-21)
(1.09156 0.128943 -1.09246e-20)
(1.09539 0.128922 -1.74305e-20)
(1.09925 0.128852 7.73472e-21)
(1.10313 0.128734 -6.56409e-21)
(1.10703 0.128568 1.08152e-20)
(1.11096 0.128354 1.4132e-20)
(1.1149 0.128093 9.11432e-21)
(1.11887 0.127783 -7.64435e-22)
(1.12285 0.127425 1.03685e-21)
(1.12684 0.127019 3.39811e-21)
(1.13085 0.126565 -7.30974e-21)
(1.13488 0.126062 7.83351e-21)
(1.13891 0.125512 2.93408e-21)
(1.14295 0.124913 2.68797e-21)
(1.14699 0.124265 -7.086e-21)
(1.06011 0.124485 -5.74808e-21)
(1.06383 0.124865 -1.57756e-20)
(1.06737 0.125198 2.36424e-20)
(1.0709 0.125485 -2.12337e-20)
(1.07448 0.125722 1.18178e-20)
(1.0781 0.125911 4.93671e-21)
(1.08174 0.126053 -1.35372e-20)
(1.08541 0.126147 -3.17684e-20)
(1.0891 0.126194 -1.52361e-20)
(1.09283 0.126195 -4.56524e-21)
(1.09657 0.126149 5.40097e-21)
(1.10035 0.126056 3.4598e-21)
(1.10415 0.125917 -5.22313e-21)
(1.10797 0.125732 -1.89968e-20)
(1.11181 0.125501 -1.84563e-20)
(1.11567 0.125224 6.82064e-21)
(1.11954 0.124901 -7.51685e-21)
(1.12344 0.124532 -3.25415e-21)
(1.12735 0.124118 1.09015e-21)
(1.13127 0.123658 8.21256e-21)
(1.13521 0.123152 -1.45449e-21)
(1.13915 0.1226 -1.70006e-21)
(1.1431 0.122003 -2.38701e-21)
(1.14706 0.121359 3.15713e-22)
(1.06205 0.121991 3.05946e-20)
(1.06568 0.122333 -5.75476e-21)
(1.06915 0.122629 -2.91593e-20)
(1.07261 0.12288 3.33295e-20)
(1.07611 0.123085 -3.03312e-20)
(1.07965 0.123243 9.96665e-21)
(1.08321 0.123355 7.70899e-21)
(1.0868 0.123421 2.76404e-20)
(1.09042 0.123443 -1.80402e-20)
(1.09407 0.123419 -2.99226e-21)
(1.09773 0.12335 1.09587e-20)
(1.10143 0.123236 -2.29085e-20)
(1.10514 0.123079 2.16902e-20)
(1.10888 0.122876 1.78057e-20)
(1.11264 0.12263 -6.00684e-21)
(1.11642 0.12234 -6.53002e-21)
(1.12021 0.122006 4.05825e-21)
(1.12402 0.121628 4.99038e-21)
(1.12785 0.121207 -3.1846e-21)
(1.13168 0.120742 -5.2413e-21)
(1.13553 0.120234 -4.25685e-21)
(1.13939 0.119682 -5.42161e-21)
(1.14325 0.119087 -2.16418e-21)
(1.14712 0.118448 2.75047e-21)
(1.06396 0.119449 -1.93696e-20)
(1.0675 0.119755 3.98836e-20)
(1.0709 0.120016 1.95905e-20)
(1.07428 0.120235 -4.80635e-20)
(1.07771 0.120408 8.51739e-21)
(1.08117 0.120537 -2.60883e-20)
(1.08466 0.120622 -3.30213e-20)
(1.08817 0.120663 1.76772e-20)
(1.09171 0.12066 3.42807e-20)
(1.09528 0.120614 -1.16637e-20)
(1.09887 0.120525 4.92297e-21)
(1.10248 0.120393 1.92433e-22)
(1.10612 0.120218 -1.08024e-20)
(1.10978 0.120001 -5.10004e-21)
(1.11346 0.119741 7.9499e-21)
(1.11715 0.11944 9.19816e-21)
(1.12086 0.119096 -4.32801e-21)
(1.12459 0.118711 -7.4873e-21)
(1.12833 0.118285 8.30989e-21)
(1.13209 0.117816 -4.32639e-21)
(1.13585 0.117307 1.62711e-21)
(1.13963 0.116756 2.35109e-21)
(1.14341 0.116164 -6.9074e-22)
(1.1472 0.11553 -1.10493e-21)
(1.06583 0.116859 1.13438e-20)
(1.06928 0.117132 7.38317e-21)
(1.0726 0.11736 -3.36472e-21)
(1.07591 0.117548 3.1296e-20)
(1.07926 0.117693 -2.29271e-21)
(1.08265 0.117794 1.07846e-20)
(1.08607 0.117854 2.91633e-20)
(1.08951 0.117871 -2.65362e-20)
(1.09297 0.117847 -1.53323e-20)
(1.09646 0.117781 -1.17342e-20)
(1.09998 0.117673 -2.26616e-20)
(1.10351 0.117524 5.792e-21)
(1.10707 0.117335 -1.09683e-20)
(1.11065 0.117104 -1.15325e-20)
(1.11425 0.116833 -6.19449e-22)
(1.11787 0.116522 -8.23865e-21)
(1.1215 0.116171 -1.75519e-21)
(1.12515 0.11578 1.00996e-20)
(1.12881 0.11535 -7.06261e-21)
(1.13249 0.11488 5.96985e-24)
(1.13617 0.11437 2.50981e-21)
(1.13986 0.113821 4.3867e-22)
(1.14356 0.113233 1.63069e-21)
(1.14727 0.112605 -5.32347e-22)
(1.06765 0.114223 -2.82133e-20)
(1.07102 0.114463 -3.03348e-20)
(1.07427 0.114661 -5.51473e-21)
(1.0775 0.114821 -3.15442e-20)
(1.08079 0.114938 1.56484e-21)
(1.0841 0.115015 8.19367e-21)
(1.08744 0.115051 1.31094e-20)
(1.09081 0.115047 1.7152e-20)
(1.0942 0.115002 -1.75821e-20)
(1.09762 0.114918 2.50908e-20)
(1.10106 0.114794 -9.06298e-22)
(1.10452 0.114631 1.69726e-20)
(1.108 0.114428 6.71744e-21)
(1.11151 0.114186 4.77375e-21)
(1.11503 0.113906 8.48553e-21)
(1.11857 0.113587 -5.65749e-21)
(1.12213 0.11323 9.03626e-21)
(1.1257 0.112835 -5.65137e-21)
(1.12928 0.112402 5.12578e-21)
(1.13287 0.111931 9.57789e-21)
(1.13648 0.111422 1.48721e-21)
(1.14009 0.110876 3.48511e-21)
(1.14371 0.110293 3.50384e-21)
(1.06943 0.111541 -2.46031e-21)
(1.07271 0.111751 -1.49125e-20)
(1.07589 0.11192 -1.54524e-21)
(1.07906 0.112053 3.6757e-22)
(1.08227 0.112146 1.31901e-20)
(1.08551 0.112199 9.93741e-21)
(1.08878 0.112214 -2.3406e-20)
(1.09208 0.11219 -2.11032e-20)
(1.0954 0.112127 2.17628e-20)
(1.09874 0.112027 -1.46188e-20)
(1.10211 0.111888 3.93836e-21)
(1.1055 0.111712 -7.20479e-21)
(1.10891 0.111498 8.26469e-22)
(1.11234 0.111246 1.74325e-21)
(1.11578 0.110958 -7.63949e-21)
(1.11925 0.110633 6.43374e-21)
(1.12273 0.110271 -6.3009e-21)
(1.12622 0.109873 -4.08194e-21)
(1.12973 0.109439 4.86366e-22)
(1.13325 0.108969 6.8363e-22)
(1.13678 0.108463 -6.38886e-21)
(1.14032 0.107921 -2.63671e-21)
(1.14386 0.107344 -2.12508e-21)
(1.07116 0.108813 4.74381e-20)
(1.07437 0.108995 2.73851e-20)
(1.07748 0.109138 5.74503e-21)
(1.08058 0.109245 2.31186e-20)
(1.08372 0.109315 -2.8578e-20)
(1.08689 0.109347 -2.78219e-20)
(1.09009 0.109342 -8.19478e-22)
(1.09331 0.1093 1.68766e-20)
(1.09656 0.109221 3.89529e-21)
(1.09983 0.109106 -6.08953e-21)
(1.10313 0.108955 -3.29384e-21)
(1.10644 0.108767 -8.56769e-21)
(1.10978 0.108543 -3.42843e-22)
(1.11314 0.108284 7.53912e-21)
(1.11652 0.10799 -1.66711e-21)
(1.11991 0.10766 -9.69955e-22)
(1.12332 0.107295 7.98694e-21)
(1.12674 0.106896 1.06319e-20)
(1.13017 0.106462 -5.93426e-21)
(1.13362 0.105994 -5.24128e-21)
(1.13707 0.105491 2.22553e-21)
(1.14053 0.104955 8.90214e-22)
(1.144 0.104385 -1.82672e-21)
(1.07285 0.106041 -3.11172e-20)
(1.07598 0.106196 -8.83849e-21)
(1.07902 0.106314 2.53584e-21)
(1.08205 0.106398 4.78487e-21)
(1.08512 0.106447 2.1513e-20)
(1.08822 0.106459 7.64373e-21)
(1.09135 0.106436 1.21297e-20)
(1.09451 0.106378 -2.52804e-20)
(1.09769 0.106285 -1.54297e-20)
(1.10089 0.106157 -2.99299e-21)
(1.10412 0.105994 9.55255e-22)
(1.10736 0.105796 6.3454e-21)
(1.11063 0.105565 6.62178e-21)
(1.11392 0.105299 -3.59408e-22)
(1.11722 0.105 2.89813e-21)
(1.12054 0.104667 -3.9799e-21)
(1.12388 0.104301 -7.5282e-21)
(1.12723 0.103901 -7.86696e-21)
(1.13059 0.103469 1.23871e-21)
(1.13397 0.103004 -8.31084e-22)
(1.13735 0.102506 1.04453e-22)
(1.14074 0.101977 -4.07823e-21)
(1.14413 0.101415 2.94724e-21)
(1.0745 0.103224 9.22736e-21)
(1.07754 0.103355 2.95661e-21)
(1.08051 0.10345 -3.02265e-20)
(1.08348 0.103513 -1.38962e-20)
(1.08648 0.103542 3.47122e-21)
(1.08952 0.103536 1.80578e-20)
(1.09258 0.103497 -1.50492e-20)
(1.09567 0.103424 3.85903e-21)
(1.09878 0.103318 1.78471e-21)
(1.10192 0.103178 1.66731e-20)
(1.10507 0.103006 1.10714e-21)
(1.10825 0.1028 1.83194e-21)
(1.11145 0.102562 -2.0131e-22)
(1.11467 0.102292 4.93927e-22)
(1.11791 0.101989 -3.56465e-21)
(1.12116 0.101654 6.59346e-21)
(1.12443 0.101288 6.33793e-21)
(1.12771 0.100889 7.75149e-21)
(1.131 0.10046 -1.47799e-21)
(1.1343 0.0999992 -2.95406e-21)
(1.13761 0.0995077 -1.79546e-22)
(1.14093 0.0989854 7.03997e-21)
(1.14426 0.0984325 1.59753e-21)
(1.07609 0.100364 1.59936e-20)
(1.07906 0.100473 4.27758e-22)
(1.08197 0.100546 1.91348e-20)
(1.08487 0.100589 8.16436e-21)
(1.08781 0.1006 -2.90919e-20)
(1.09078 0.100578 -1.29046e-20)
(1.09377 0.100524 1.32551e-20)
(1.09679 0.100438 1.09088e-20)
(1.09984 0.10032 5.23568e-21)
(1.10291 0.100171 4.35111e-22)
(1.106 0.0999903 4.77959e-21)
(1.10911 0.0997782 -3.62194e-21)
(1.11224 0.099535 -5.25861e-23)
(1.1154 0.0992609 -1.64795e-22)
(1.11856 0.098956 3.21877e-21)
(1.12175 0.0986207 -7.6764e-22)
(1.12495 0.0982551 -7.21735e-21)
(1.12816 0.0978595 -4.53526e-21)
(1.13139 0.097434 1.88468e-21)
(1.13462 0.0969788 3.36504e-21)
(1.13786 0.0964942 1.03758e-21)
(1.14112 0.0959805 -8.45111e-22)
(1.14437 0.0954376 -2.06984e-21)
(1.07763 0.0974611 -2.30452e-20)
(1.08053 0.0975485 -6.06225e-21)
(1.08337 0.0976027 -5.38782e-23)
(1.08621 0.0976277 -1.55716e-20)
(1.08909 0.097622 1.64027e-20)
(1.09199 0.0975854 1.93269e-20)
(1.09492 0.0975183 -5.45228e-21)
(1.09788 0.0974209 -1.70071e-21)
(1.10086 0.0972932 -1.43255e-21)
(1.10387 0.0971355 -3.74263e-21)
(1.10689 0.0969478 -3.40661e-21)
(1.10994 0.0967303 4.42782e-21)
(1.11301 0.0964833 -1.42242e-21)
(1.11609 0.0962069 1.55642e-21)
(1.1192 0.0959012 3.87425e-21)
(1.12232 0.0955666 6.10827e-21)
(1.12545 0.0952031 -2.29933e-21)
(1.1286 0.0948111 3.543e-21)
(1.13176 0.0943907 -1.94538e-22)
(1.13493 0.0939421 4.56798e-21)
(1.1381 0.0934656 -4.66462e-21)
(1.14129 0.0929612 -8.01532e-22)
(1.14448 0.0924293 9.79455e-22)
(1.07912 0.0945159 2.12182e-20)
(1.08195 0.0945839 1.88353e-20)
(1.08473 0.0946203 5.13309e-21)
(1.08751 0.0946288 1.64524e-20)
(1.09032 0.0946083 -2.51363e-21)
(1.09316 0.0945586 -2.29647e-20)
(1.09603 0.0944798 2.22799e-21)
(1.09893 0.0943723 1.09863e-20)
(1.10185 0.0942361 1.06235e-21)
(1.10479 0.0940713 3.82762e-21)
(1.10775 0.093878 -3.18207e-22)
(1.11074 0.0936565 -8.54789e-21)
(1.11374 0.0934069 4.67922e-21)
(1.11676 0.0931294 -2.76627e-21)
(1.1198 0.0928242 -3.65252e-21)
(1.12286 0.0924914 -2.80569e-21)
(1.12593 0.0921312 3.87457e-21)
(1.12901 0.0917439 -5.88211e-21)
(1.13211 0.0913296 2.01816e-21)
(1.13521 0.0908886 -4.38381e-21)
(1.13833 0.090421 4.6315e-21)
(1.14145 0.089927 -2.5661e-22)
(1.14457 0.0894069 -5.60368e-22)
(1.08056 0.0915289 -2.55818e-20)
(1.08332 0.0915791 -2.99928e-20)
(1.08604 0.0915993 -8.92565e-21)
(1.08876 0.091593 -9.6789e-21)
(1.09151 0.0915593 8.05941e-21)
(1.0943 0.0914978 1.05348e-20)
(1.0971 0.0914089 1.84398e-21)
(1.09994 0.0912926 -1.00153e-21)
(1.1028 0.0911492 -2.69116e-21)
(1.10568 0.0909786 -2.09677e-21)
(1.10858 0.0907811 -7.27151e-22)
(1.1115 0.0905568 -3.67969e-21)
(1.11445 0.0903058 -1.0565e-20)
(1.11741 0.0900284 4.94506e-21)
(1.12039 0.0897246 1.45163e-21)
(1.12338 0.0893948 6.1662e-22)
(1.12639 0.0890389 6.09394e-21)
(1.12941 0.0886573 3.17854e-21)
(1.13244 0.0882502 -5.11724e-21)
(1.13549 0.0878177 -1.18233e-21)
(1.13854 0.0873599 1.22116e-21)
(1.14159 0.0868772 -1.82947e-21)
(1.14466 0.0863696 -3.61347e-21)
(1.08195 0.0885005 2.33842e-20)
(1.08465 0.0885346 1.89541e-20)
(1.0873 0.0885402 1.09645e-20)
(1.08997 0.0885206 7.99951e-21)
(1.09266 0.0884751 -5.34193e-21)
(1.09538 0.0884033 -5.55194e-21)
(1.09813 0.0883056 -1.69455e-21)
(1.10091 0.0881819 -1.16357e-21)
(1.10371 0.0880325 4.90159e-21)
(1.10653 0.0878575 4.76917e-21)
(1.10937 0.0876569 -1.63824e-21)
(1.11224 0.087431 6.03361e-21)
(1.11512 0.0871798 -1.91638e-21)
(1.11802 0.0869035 2.52303e-21)
(1.12094 0.0866023 3.33949e-21)
(1.12387 0.0862764 -6.33485e-21)
(1.12682 0.0859259 3.3859e-22)
(1.12978 0.085551 4.81015e-21)
(1.13276 0.0851519 1.41131e-21)
(1.13574 0.0847287 -2.65992e-23)
(1.13873 0.0842817 4.47661e-22)
(1.14173 0.083811 1.12137e-21)
(1.14473 0.0833167 6.26662e-21)
(1.08329 0.0854312 -1.07924e-20)
(1.08592 0.0854507 5.97847e-22)
(1.08852 0.0854431 1.87164e-21)
(1.09112 0.0854118 -1.70785e-21)
(1.09376 0.0853559 -6.2987e-21)
(1.09643 0.0852752 5.70845e-21)
(1.09912 0.08517 1.63359e-22)
(1.10184 0.0850403 1.24298e-21)
(1.10458 0.0848862 -8.9544e-21)
(1.10735 0.0847078 -9.01636e-21)
(1.11013 0.0845054 5.34264e-21)
(1.11294 0.0842789 -1.26441e-21)
(1.11576 0.0840286 4.05966e-21)
(1.11861 0.0837545 -7.56043e-22)
(1.12147 0.0834569 -2.69802e-21)
(1.12435 0.0831359 1.87478e-21)
(1.12724 0.0827916 -7.63879e-21)
(1.13014 0.0824243 -1.01627e-20)
(1.13305 0.0820341 1.44223e-21)
(1.13598 0.0816212 3.37517e-21)
(1.13891 0.0811856 -2.38363e-21)
(1.14185 0.0807277 -5.98741e-22)
(1.1448 0.0802476 -3.93994e-21)
(1.08457 0.0823212 -3.76604e-21)
(1.08714 0.0823276 -7.86592e-22)
(1.08968 0.0823084 -5.1435e-21)
(1.09224 0.0822667 4.48945e-22)
(1.09482 0.0822019 8.66557e-21)
(1.09743 0.0821136 3.21776e-21)
(1.10007 0.0820022 2.97271e-22)
(1.10273 0.0818676 -4.57152e-21)
(1.10542 0.08171 6.78967e-22)
(1.10813 0.0815296 1.04371e-20)
(1.11086 0.0813263 -2.24947e-21)
(1.11361 0.0811004 -7.33103e-21)
(1.11638 0.0808519 -2.67092e-21)
(1.11917 0.0805811 -7.26836e-21)
(1.12197 0.080288 3.91637e-21)
(1.12479 0.0799728 -3.58931e-21)
(1.12763 0.0796357 2.98466e-21)
(1.13048 0.0792768 6.07551e-21)
(1.13333 0.0788963 5.28058e-22)
(1.1362 0.0784944 -4.56866e-21)
(1.13908 0.0780711 -2.3387e-21)
(1.14196 0.0776267 5.23531e-21)
(1.14485 0.0771613 -4.40252e-21)
(1.0858 0.0791708 1.71692e-21)
(1.08831 0.0791656 6.52694e-21)
(1.0908 0.0791362 -5.02053e-21)
(1.0933 0.0790855 -7.05743e-21)
(1.09583 0.079013 1.75015e-21)
(1.09839 0.0789184 -5.98424e-21)
(1.10097 0.078802 1.05943e-21)
(1.10358 0.0786638 -3.56437e-21)
(1.10622 0.0785039 6.25142e-21)
(1.10887 0.0783224 -4.82486e-21)
(1.11155 0.0781194 2.07348e-21)
(1.11425 0.077895 3.81756e-21)
(1.11696 0.0776495 -1.08276e-21)
(1.1197 0.0773828 4.75409e-21)
(1.12245 0.0770951 3.59936e-21)
(1.12522 0.0767867 3.36622e-21)
(1.128 0.0764576 2.36066e-21)
(1.13079 0.0761079 4.98444e-21)
(1.13359 0.0757379 -3.82221e-21)
(1.13641 0.0753477 1.73755e-21)
(1.13923 0.0749374 6.24601e-21)
(1.14206 0.0745072 -6.84249e-21)
(1.14489 0.0740572 3.33941e-23)
(1.08697 0.07598 -2.2955e-21)
(1.08942 0.0759646 -7.5383e-21)
(1.09187 0.0759263 1.13613e-20)
(1.09432 0.075868 1.51765e-20)
(1.0968 0.0757891 2.03247e-21)
(1.09931 0.0756895 -1.80444e-21)
(1.10184 0.0755693 -4.20801e-21)
(1.1044 0.0754286 8.80691e-21)
(1.10698 0.0752674 5.58678e-21)
(1.10958 0.075086 -6.55184e-21)
(1.11221 0.0748843 -5.35347e-22)
(1.11486 0.0746625 7.67491e-21)
(1.11752 0.0744207 2.65009e-21)
(1.1202 0.0741591 -5.80759e-22)
(1.1229 0.0738778 -5.9932e-21)
(1.12562 0.0735769 3.18034e-21)
(1.12835 0.0732565 -1.84195e-21)
(1.13109 0.0729169 -7.33287e-22)
(1.13384 0.0725581 1.90864e-21)
(1.1366 0.0721803 -1.05576e-21)
(1.13937 0.0717837 -5.24115e-21)
(1.14214 0.0713683 5.39253e-21)
(1.14493 0.0709343 4.58582e-21)
(1.08809 0.0727489 2.25016e-21)
(1.09049 0.0727246 2.02282e-21)
(1.09288 0.0726788 -9.62576e-21)
(1.09528 0.0726141 -9.16152e-21)
(1.09772 0.0725301 -5.08408e-21)
(1.10018 0.0724266 3.88133e-21)
(1.10266 0.0723037 1.4864e-21)
(1.10517 0.0721616 -6.69142e-21)
(1.1077 0.0720003 -1.1124e-20)
(1.11026 0.0718198 7.51704e-21)
(1.11284 0.0716204 7.08387e-21)
(1.11543 0.0714022 1.58044e-21)
(1.11805 0.0711651 3.04277e-21)
(1.12068 0.0709094 1.90924e-21)
(1.12333 0.0706353 -1.93156e-21)
(1.12599 0.0703427 -5.11317e-22)
(1.12867 0.0700319 -5.03668e-21)
(1.13136 0.069703 -8.36008e-21)
(1.13406 0.0693562 1.01812e-21)
(1.13677 0.0689915 -4.02349e-21)
(1.13949 0.0686091 1.43768e-21)
(1.14222 0.0682091 -1.41262e-21)
(1.14495 0.0677917 -2.2806e-21)
(1.08915 0.0694773 -7.3628e-21)
(1.0915 0.0694453 -1.19481e-21)
(1.09385 0.0693933 1.44861e-21)
(1.0962 0.0693234 4.41146e-21)
(1.09859 0.0692355 5.82645e-21)
(1.10101 0.0691292 -5.39611e-21)
(1.10344 0.0690048 1.95106e-21)
(1.10591 0.0688623 2.93616e-21)
(1.10839 0.0687018 6.54835e-21)
(1.1109 0.0685235 4.70658e-21)
(1.11343 0.0683273 -7.33224e-21)
(1.11598 0.0681134 -2.74204e-21)
(1.11855 0.0678819 -2.64657e-21)
(1.12113 0.067633 5.75053e-22)
(1.12373 0.0673668 7.40207e-21)
(1.12635 0.0670834 -4.00034e-21)
(1.12898 0.0667828 1.40712e-21)
(1.13162 0.0664654 3.97962e-21)
(1.13427 0.0661311 -7.24548e-22)
(1.13694 0.0657802 7.28709e-21)
(1.13961 0.0654126 1.02811e-21)
(1.14228 0.0650287 7.61358e-22)
(1.14496 0.0646284 2.42038e-22)
(1.09016 0.0661648 8.5718e-21)
(1.09246 0.0661265 4.19864e-21)
(1.09476 0.0660694 3.18182e-22)
(1.09708 0.0659955 -4.40041e-21)
(1.09942 0.0659047 -4.93653e-21)
(1.10179 0.0657969 6.10077e-21)
(1.10419 0.065672 -2.30693e-21)
(1.1066 0.0655301 -8.90823e-22)
(1.10905 0.0653715 4.72205e-22)
(1.11151 0.065196 -2.4465e-21)
(1.11399 0.065004 6.11036e-21)
(1.1165 0.0647954 -6.68658e-21)
(1.11902 0.0645704 -3.50912e-22)
(1.12156 0.064329 -3.42154e-21)
(1.12411 0.0640715 -3.77093e-21)
(1.12668 0.0637979 -4.28039e-22)
(1.12927 0.0635084 3.65333e-21)
(1.13186 0.063203 4.83417e-21)
(1.13447 0.062882 1.14867e-21)
(1.13708 0.0625454 -4.31958e-21)
(1.13971 0.0621933 -2.50941e-22)
(1.14234 0.0618259 -2.02495e-21)
(1.14497 0.0614432 1.05882e-21)
(1.09111 0.062811 -9.37957e-26)
(1.09337 0.0627675 -1.39471e-21)
(1.09563 0.0627065 -2.48738e-21)
(1.0979 0.0626298 3.75616e-21)
(1.1002 0.0625372 -5.73144e-21)
(1.10253 0.0624287 -8.18555e-22)
(1.10489 0.0623043 -9.05783e-21)
(1.10726 0.0621641 -1.14523e-21)
(1.10966 0.0620082 -1.78382e-21)
(1.11208 0.0618367 -6.2041e-21)
(1.11452 0.0616496 -2.7573e-21)
(1.11698 0.0614471 6.10917e-21)
(1.11946 0.0612293 -2.84643e-21)
(1.12196 0.0609963 3.80372e-21)
(1.12447 0.0607483 2.30126e-21)
(1.12699 0.0604852 1.07408e-21)
(1.12953 0.0602073 1.5872e-21)
(1.13209 0.0599148 -3.11948e-21)
(1.13465 0.0596076 -1.82986e-21)
(1.13722 0.0592859 2.05784e-21)
(1.1398 0.0589498 -1.32082e-21)
(1.14238 0.0585995 1.28491e-22)
(1.14497 0.058235 -1.48977e-21)
(1.09201 0.0594152 -3.67019e-21)
(1.09423 0.0593677 -1.11715e-21)
(1.09645 0.0593038 2.9843e-21)
(1.09868 0.0592253 -4.7635e-21)
(1.10094 0.0591321 5.25744e-21)
(1.10323 0.0590239 4.97473e-21)
(1.10555 0.058901 8.97779e-21)
(1.10788 0.0587634 -1.94434e-21)
(1.11024 0.0586111 -1.47209e-21)
(1.11262 0.0584443 -2.9355e-22)
(1.11502 0.0582631 -1.64728e-21)
(1.11744 0.0580675 -4.07129e-21)
(1.11988 0.0578577 8.40558e-22)
(1.12233 0.0576338 -6.63087e-21)