/*--------------------------------*- C++ -*----------------------------------*\
  =========                 |
  \\      /  F ield         | OpenFOAM: The Open Source CFD Toolbox
   \\    /   O peration     | Website:  https://openfoam.org
    \\  /    A nd           | Version:  7
     \\/     M anipulation  |
\*---------------------------------------------------------------------------*/
FoamFile
{
    version     2.0;
    format      ascii;
    class       volVectorField;
    location    "20";
    object      U;
}
// * * * * * * * * * * * * * * * * * * * * * * * * * * * * * * * * * * * * * //

dimensions      [0 1 -1 0 0 0 0];

internalField   nonuniform List<vector> 
6050
(
(-0.00678462 0.00258829 -3.81778e-20)
(-0.0288151 0.00446866 -4.63016e-20)
(-0.0587044 0.00496668 5.79923e-21)
(-0.0851922 0.00490897 -1.50062e-20)
(-0.109404 0.00464764 7.31991e-20)
(-0.130571 0.00435274 2.31589e-20)
(-0.149317 0.00407815 -3.23955e-20)
(-0.00707061 0.0077099 1.95758e-21)
(-0.0290579 0.0133251 -2.91996e-20)
(-0.0585547 0.0148166 -6.1516e-20)
(-0.0845172 0.0146436 4.99567e-20)
(-0.108083 0.0138585 3.20299e-20)
(-0.128495 0.0129698 4.90396e-21)
(-0.146357 0.0121392 9.36731e-20)
(-0.00763432 0.0126724 -1.08471e-20)
(-0.0295397 0.0219462 -4.1806e-20)
(-0.058261 0.0244218 6.0331e-20)
(-0.0831809 0.0241336 4.68436e-20)
(-0.105464 0.0228219 -1.58476e-19)
(-0.124373 0.0213278 2.06235e-20)
(-0.14048 0.0199213 -1.57506e-19)
(-0.00845997 0.0173784 5.46471e-20)
(-0.0302534 0.0301824 2.21516e-19)
(-0.0578338 0.0336235 -7.27645e-20)
(-0.0812085 0.0332189 -1.49378e-19)
(-0.101585 0.0313754 -8.66651e-20)
(-0.118263 0.0292582 1.20848e-19)
(-0.13177 0.0272453 1.51469e-19)
(-0.00952548 0.021741 -1.4862e-19)
(-0.0311877 0.0378939 -4.32878e-20)
(-0.0572867 0.0422685 1.30435e-19)
(-0.0786332 0.0417428 6.84249e-20)
(-0.0964981 0.0393603 3.36627e-19)
(-0.110237 0.0365976 -3.12915e-19)
(-0.120325 0.0339409 -1.75851e-19)
(-0.0108039 0.0256869 9.6731e-20)
(-0.0323281 0.0449538 7.90061e-21)
(-0.0566334 0.0502117 -2.42881e-19)
(-0.0754905 0.0495535 -1.20867e-19)
(-0.0902584 0.0466225 -3.9744e-19)
(-0.100366 0.04319 -1.46051e-20)
(-0.106235 0.0398498 -2.09447e-20)
(-0.107982 0.0367585 -3.47051e-20)
(-0.0122655 0.0291596 -2.47168e-19)
(-0.0336552 0.0512511 -4.44069e-19)
(-0.0558839 0.0573183 1.61482e-19)
(-0.0718108 0.0565065 -4.50769e-20)
(-0.0829085 0.0530148 3.5779e-19)
(-0.0886995 0.0488885 3.44934e-19)
(-0.0895481 0.0448281 -1.18661e-19)
(-0.0855 0.0410251 1.65008e-19)
(-0.0138794 0.0321204 1.83195e-19)
(-0.0351451 0.0566934 2.04473e-19)
(-0.0550396 0.0634665 1.42696e-19)
(-0.0676092 0.0624661 5.11139e-19)
(-0.0744644 0.0583983 -1.13716e-19)
(-0.0752363 0.0535575 1.7278e-19)
(-0.0702265 0.0487497 2.25141e-19)
(-0.0593992 0.0442059 -2.83715e-19)
(-0.0156157 0.0345495 -8.9845e-20)
(-0.0367673 0.061208 5.36908e-20)
(-0.054087 0.0685497 -4.3384e-19)
(-0.062873 0.0673087 -2.49848e-19)
(-0.0648928 0.0626459 -2.00379e-19)
(-0.0598925 0.0570773 -1.12163e-19)
(-0.0480972 0.0515127 -5.5087e-19)
(-0.0293701 0.0462298 9.97298e-20)
(-0.0174471 0.036445 3.43151e-19)
(-0.0384835 0.0647434 3.9851e-19)
(-0.0529895 0.072479 1.05438e-19)
(-0.0575466 0.0709262 4.35224e-19)
(-0.0540856 0.0656473 1.21547e-19)
(-0.0424599 0.0593509 2.72641e-19)
(-0.0227918 0.0530507 3.0743e-19)
(0.00518472 0.0470816 2.84028e-19)
(-0.0193499 0.0378217 -2.14971e-19)
(-0.0402444 0.0672694 -3.61939e-19)
(-0.0516785 0.0751866 6.34404e-19)
(-0.0515118 0.0732312 -6.53973e-19)
(-0.0418278 0.0673171 -4.69379e-19)
(-0.0225579 0.0603163 -2.01794e-19)
(0.00631841 0.053351 -8.83654e-20)
(0.0452234 0.0468297 -4.86084e-19)
(-0.021304 0.038708 2.01226e-19)
(-0.041986 0.0687763 1.60398e-19)
(-0.0500415 0.0766283 -7.37117e-19)
(-0.0445667 0.0741632 -2.49453e-19)
(-0.0277609 0.0676048 2.65194e-19)
(0.000419657 0.0599642 -1.40543e-19)
(0.0401841 0.0524834 3.83228e-19)
(0.0921076 0.0456675 3.64473e-19)
(0.156618 0.0397046 -4.76652e-19)
(-0.023293 0.0391429 -6.44864e-19)
(-0.0436249 0.0692733 -6.31404e-19)
(-0.0479103 0.0767871 4.72006e-19)
(-0.0364004 0.0736971 3.01017e-19)
(-0.0113429 0.0665108 1.61142e-19)
(0.0273544 0.0583635 -1.31761e-19)
(0.0801157 0.0506378 -2.37878e-19)
(0.14757 0.043963 1.19621e-19)
(0.229842 0.0386179 1.49039e-20)
(-0.0253022 0.0391716 9.96789e-20)
(-0.0450511 0.0687854 6.62995e-19)
(-0.0450467 0.0756766 -2.08988e-19)
(-0.0265681 0.0718529 -2.70355e-20)
(0.00818854 0.0641051 -2.10342e-19)
(0.0594373 0.0556927 -7.93668e-20)
(0.127763 0.0481697 7.12141e-20)
(0.213538 0.0423046 2.33883e-19)
(0.315954 0.0384325 6.51776e-20)
(-0.0273166 0.0388418 5.63182e-19)
(-0.0461231 0.0673524 -1.64481e-19)
(-0.0411275 0.0733431 -4.23733e-19)
(-0.0144673 0.0687062 5.67057e-19)
(0.0318422 0.06055 5.03046e-19)
(0.098161 0.0522771 3.64302e-19)
(0.184983 0.0456417 3.35318e-19)
(0.291745 0.0415156 -1.15347e-19)
(0.415629 0.0401534 2.13403e-19)
(-0.0293172 0.0381981 -1.77719e-19)
(-0.0466646 0.0650317 9.88235e-20)
(-0.0357301 0.0698635 2.45482e-19)
(0.000680624 0.0643986 -6.87998e-19)
(0.060876 0.0561245 -1.17344e-19)
(0.145238 0.0486234 -5.88765e-19)
(0.253544 0.0438401 2.40158e-19)
(0.383083 0.0425918 -5.75447e-19)
(0.52761 0.0447536 2.24794e-19)
(0.677987 0.0493659 -5.30441e-19)
(-0.0312721 0.0372758 5.62283e-21)
(-0.0464566 0.0618884 4.39383e-19)
(-0.0283295 0.0653527 -1.16674e-19)
(0.0198358 0.0591524 -4.00651e-20)
(0.0967566 0.0512502 1.32857e-19)
(0.202403 0.0454407 4.5917e-19)
(0.334616 0.0437314 -2.26136e-19)
(0.486805 0.0465194 -2.0399e-19)
(0.648014 0.0528492 1.34745e-19)
(0.805406 0.0608383 2.99545e-19)
(-0.0331297 0.0360958 -4.75224e-20)
(-0.045229 0.0579945 -4.26575e-20)
(-0.0182951 0.0599698 4.96514e-19)
(0.0441238 0.0532806 2.58124e-19)
(0.141055 0.0465096 -2.35183e-19)
(0.271065 0.0436226 6.79992e-20)
(0.42811 0.0463172 7.51361e-20)
(0.599872 0.0539743 6.66545e-19)
(0.770449 0.0643816 -5.61466e-19)
(0.925072 0.0747662 -7.96191e-19)
(1.05363 0.0829529 -7.83176e-19)
(-0.0348129 0.0346653 4.04873e-20)
(-0.0426615 0.0534347 -5.55435e-19)
(-0.00489121 0.053911 1.46842e-19)
(0.074794 0.0471997 -4.97642e-19)
(0.195249 0.0426534 6.35808e-19)
(0.351807 0.0441586 -4.30837e-19)
(0.532041 0.0523788 1.75613e-20)
(0.716919 0.0650161 -3.60193e-20)
(0.887256 0.0785203 -4.45299e-19)
(1.02955 0.0897067 1.09149e-18)
(1.13803 0.0967686 4.60393e-19)
(-0.0362385 0.0330066 -2.92505e-19)
(-0.0383593 0.0482798 3.8346e-19)
(0.0127106 0.0474132 -3.38478e-19)
(0.113139 0.0414469 -3.73731e-19)
(0.260415 0.0405773 -6.96501e-19)
(0.443817 0.0479484 2.75547e-19)
(0.642314 0.0621846 -1.91127e-19)
(0.831187 0.0789718 -5.5537e-19)
(0.991522 0.0939209 4.8189e-19)
(1.11447 0.104222 -3.88973e-19)
(1.20016 0.109012 5.6071e-19)
(1.25433 0.108702 6.43679e-19)
(-0.0373077 0.03112 1.52303e-18)
(-0.0318783 0.0425966 -3.89819e-19)
(0.0354093 0.0407795 3.45552e-19)
(0.160351 0.036705 4.24852e-19)
(0.336799 0.0412332 6.56847e-19)
(0.544497 0.0555366 -3.49137e-19)
(0.753251 0.0753222 2.0607e-19)
(0.936182 0.0946372 -2.79151e-19)
(1.07882 0.109211 -5.14443e-19)
(1.17906 0.117333 2.66321e-19)
(1.24273 0.119322 -4.75652e-19)
(1.27887 0.116467 -3.00921e-19)
(-0.0378858 0.028992 -1.06979e-18)
(-0.0227404 0.0364897 4.66619e-19)
(0.0641469 0.0343818 -4.94239e-20)
(0.217321 0.0337746 -2.43066e-19)
(0.423391 0.0454036 -7.31082e-19)
(0.649544 0.0668542 5.22073e-19)
(0.858806 0.0907811 -4.75264e-19)
(1.02719 0.110685 2.10435e-19)
(1.14773 0.123392 2.59642e-19)
(1.22526 0.128642 -1.10699e-18)
(1.26982 0.127822 2.13157e-19)
(1.292 0.122779 3.82054e-20)
(1.30051 0.115254 4.67498e-19)
(-0.0378227 0.0266117 -7.80889e-20)
(-0.0104196 0.0300658 -7.02123e-19)
(0.0998634 0.0286676 3.89513e-19)
(0.284387 0.0335 2.59609e-19)
(0.517765 0.0534616 -2.12234e-19)
(0.753853 0.0812257 -6.61188e-19)
(0.954149 0.10734 4.46657e-19)
(1.10216 0.126089 -1.16e-19)
(1.19942 0.13599 8.43123e-20)
(1.25641 0.138192 6.94018e-19)
(1.28556 0.13485 -3.72253e-19)
(1.29754 0.128056 -3.4464e-19)
(1.30001 0.119437 -3.16239e-19)
(-0.0369412 0.0239639 -3.30676e-20)
(0.00565033 0.023457 4.10987e-19)
(0.143385 0.0242199 -7.29226e-19)
(0.36097 0.0366483 1.46072e-19)
(0.616204 0.0652449 5.07783e-19)
(0.852522 0.0976254 9.63679e-20)
(1.03631 0.123935 1.5388e-19)
(1.16116 0.14026 2.79458e-19)
(1.23631 0.146936 -3.16278e-19)
(1.27598 0.146247 -2.35388e-19)
(1.29336 0.140786 4.39006e-19)
(1.29823 0.132651 8.15625e-19)
(1.29684 0.123257 9.07502e-20)
(1.29269 0.113371 -3.22268e-19)
(-0.0350428 0.0210388 8.02618e-20)
(0.0260697 0.0168464 7.71473e-19)
(0.195279 0.0217616 -2.37197e-19)
(0.44538 0.0436779 6.55124e-19)
(0.714391 0.0800891 -5.39303e-19)
(0.941839 0.114991 6.41277e-19)
(1.10429 0.139835 -5.24428e-19)
(1.20573 0.152978 3.41593e-19)
(1.26128 0.15639 -2.23535e-19)
(1.28709 0.153137 2.33456e-20)
(1.29585 0.14597 -2.64221e-19)
(1.29594 0.136829 -4.61982e-19)
(1.29217 0.12688 -2.29147e-19)
(1.28693 0.116714 1.59693e-19)
(1.28127 0.106706 5.42856e-20)
(-0.0319098 0.0178379 -7.2655e-19)
(0.0514572 0.0105046 -6.95869e-19)
(0.255652 0.0220899 5.44691e-19)
(0.534891 0.0545697 -3.30995e-20)
(0.808298 0.0970724 7.69021e-19)
(1.01968 0.132468 -4.66398e-19)
(1.15856 0.154654 2.03908e-19)
(1.23803 0.164276 -2.65115e-19)
(1.27707 0.164613 4.99637e-19)
(1.2922 0.159181 -2.00074e-19)
(1.29487 0.150671 1.9675e-19)
(1.29186 0.140774 -1.34284e-20)
(1.28664 0.130411 1.55139e-19)
(1.28079 0.120022 -2.03914e-20)
(1.2749 0.109838 2.39912e-19)
(1.26918 0.0998304 4.92674e-20)
(-0.0273038 0.0143782 1.04361e-18)
(0.0824114 0.00483598 -6.74436e-19)
(0.323941 0.0259142 1.73177e-19)
(0.626168 0.0688492 -6.85618e-19)
(0.894842 0.115293 -4.84146e-19)
(1.08534 0.149491 5.30278e-20)
(1.20047 0.168263 9.56407e-20)
(1.26037 0.174318 -2.69086e-19)
(1.28603 0.171888 4.90282e-20)
(1.29321 0.16465 3.83884e-19)
(1.2917 0.155086 -2.83851e-19)
(1.2867 0.144606 -1.71098e-19)
(1.28063 0.13391 -9.46473e-20)
(1.27443 0.123312 -8.53492e-20)
(1.26842 0.112969 -1.10007e-19)
(1.26268 0.102864 2.07868e-19)
(1.25713 0.0933474 -1.01953e-19)
(-0.0209605 0.0106984 -2.48091e-19)
(0.119434 0.000418135 6.26231e-19)
(0.398813 0.0336504 3.76156e-19)
(0.715866 0.0857832 -4.28785e-19)
(0.972121 0.134031 5.32816e-19)
(1.13917 0.165747 -3.16653e-21)
(1.23175 0.180695 4.82939e-19)
(1.2749 0.183326 3.16089e-19)
(1.29004 0.178475 2.81435e-19)
(1.29146 0.169756 -2.71994e-19)
(1.28713 0.159353 1.90818e-19)
(1.28089 0.148396 2.01928e-19)
(1.27431 0.137404 3.39976e-19)
(1.26792 0.1266 -1.80301e-19)
(1.26186 0.11608 -1.94115e-22)
(1.25611 0.105874 -1.7497e-19)
(1.25062 0.0961427 6.7672e-21)
(1.24551 0.0863626 -7.86804e-20)
(-0.0125842 0.00687085 -2.26151e-19)
(0.162813 -0.00200526 -2.53032e-19)
(0.478258 0.0452967 -1.31141e-20)
(0.801162 0.104612 4.06458e-19)
(1.03929 0.152791 -3.9843e-19)
(1.18212 0.181105 -4.36539e-19)
(1.25419 0.192074 1.67445e-19)
(1.28343 0.191527 -1.9819e-19)
(1.29053 0.184595 -1.26313e-19)
(1.28787 0.174656 4.95209e-20)
(1.28169 0.16356 -4.32224e-19)
(1.27468 0.152185 3.99695e-19)
(1.26779 0.140908 -3.87456e-20)
(1.26129 0.129882 -8.979e-20)
(1.2552 0.119179 8.12573e-20)
(1.24947 0.108821 -1.24531e-19)
(1.24405 0.0989124 -1.11483e-19)
(1.23899 0.0890979 -6.79897e-21)
(1.2339 0.0807739 -8.34502e-20)
(1.23038 0.0701333 1.58433e-19)
(-0.00184884 0.00301741 2.6041e-19)
(0.212499 -0.001611 4.59507e-19)
(0.559863 0.0604799 -6.23542e-19)
(0.880023 0.124695 -2.32946e-19)
(1.0963 0.171259 -1.06086e-19)
(1.21545 0.195555 6.11516e-19)
(1.26948 0.202566 -1.63627e-19)
(1.28746 0.199135 -1.02502e-19)
(1.28855 0.190419 -1.42672e-19)
(1.28305 0.179457 1.71958e-19)
(1.27566 0.16776 6.39315e-20)
(1.26817 0.155992 -7.4998e-20)
(1.2611 0.144423 -2.02244e-19)
(1.25454 0.13316 2.0708e-20)
(1.24845 0.12225 -8.82809e-20)
(1.24276 0.111724 1.58992e-19)
(1.23741 0.101611 3.93649e-20)
(1.23242 0.0917485 4.15585e-20)
(1.22752 0.0830676 5.69559e-20)
(1.22388 0.0725195 -1.66888e-19)
(0.0115867 -0.000670125 -4.89887e-19)
(0.268005 0.0023426 -2.8745e-20)
(0.641168 0.0786278 -9.52627e-20)
(0.951216 0.145552 2.75314e-19)
(1.14362 0.189259 -9.57621e-20)
(1.24051 0.209155 -2.68819e-19)
(1.27907 0.212344 -3.79284e-19)
(1.28815 0.206329 2.67118e-19)
(1.28482 0.196079 -3.15011e-19)
(1.27738 0.184229 1.57126e-19)
(1.26922 0.171979 9.28221e-20)
(1.26143 0.159822 -4.91496e-20)
(1.25425 0.147945 1.16168e-19)
(1.24767 0.136424 1.31262e-19)
(1.24159 0.125293 -2.80743e-19)
(1.23595 0.114567 2.1224e-19)
(1.23069 0.104259 1.90377e-20)
(1.22578 0.0942961 3.70364e-20)
(1.22104 0.0852619 1.80221e-19)
(1.2173 0.0748063 4.53231e-20)
(0.0280414 -0.00391166 1.45683e-19)
(0.328408 0.0103454 -5.96468e-19)
(0.719964 0.0991435 5.645e-19)
(1.01416 0.166843 2.58839e-19)
(1.18202 0.206707 -1.94024e-19)
(1.2586 0.222 -3.21498e-19)
(1.28418 0.221574 1.09926e-20)
(1.28636 0.213255 -6.38439e-20)
(1.27985 0.201661 5.42146e-19)
(1.27111 0.189011 -2.48239e-19)
(1.26245 0.176229 -2.86406e-20)
(1.25447 0.16367 6.61298e-20)
(1.24724 0.151466 -4.13312e-20)
(1.24066 0.139667 -8.53045e-20)
(1.23462 0.128294 2.41814e-19)
(1.22904 0.117355 -2.00258e-19)
(1.22386 0.10684 2.48926e-20)
(1.21905 0.0967473 -1.14656e-19)
(1.21446 0.0873761 -1.22093e-19)
(1.21066 0.0769799 -3.98739e-20)
(0.047761 -0.00633443 -1.04893e-19)
(0.392423 0.0225409 2.49466e-19)
(0.794477 0.121499 -2.28398e-19)
(1.06876 0.188332 -2.38159e-19)
(1.2124 0.223578 3.97572e-19)
(1.27087 0.234202 4.23987e-19)
(1.28581 0.230401 2.0594e-19)
(1.28273 0.220022 -3.53918e-21)
(1.27398 0.207225 -5.33138e-19)
(1.26437 0.193822 4.52109e-20)
(1.25539 0.180507 1.71549e-20)
(1.24732 0.167529 1.16425e-19)
(1.24007 0.154977 1.92053e-19)
(1.23351 0.14288 -1.01064e-20)
(1.22752 0.131249 -4.43322e-20)
(1.22202 0.120077 1.80004e-19)
(1.21694 0.109355 -1.18514e-19)
(1.21223 0.0991004 1.46914e-19)
(1.20778 0.0894047 -1.32943e-20)
(1.20396 0.0790579 1.53001e-19)
(0.0708681 -0.00749189 1.82838e-19)
(0.458557 0.0387523 9.76651e-20)
(0.863431 0.145257 -2.2426e-19)
(1.11523 0.209843 -2.7952e-19)
(1.23571 0.239886 -1.98792e-20)
(1.27837 0.245873 -4.65397e-20)
(1.28472 0.238944 2.30414e-19)
(1.27771 0.226706 1.61275e-19)
(1.2674 0.2128 1.7427e-19)
(1.25723 0.198665 -6.36442e-20)
(1.24807 0.184804 8.43984e-20)
(1.23995 0.171386 -7.79144e-20)
(1.23272 0.158464 -1.59346e-19)
(1.2262 0.146052 1.944e-20)
(1.22029 0.134147 4.19662e-20)
(1.21488 0.122732 5.03486e-20)
(1.20991 0.111797 6.75511e-20)
(1.2053 0.101355 -4.08947e-20)
(1.20099 0.091358 7.96748e-20)
(1.19718 0.0810421 -1.84893e-19)
(0.0973248 -0.00690868 2.41384e-19)
(0.52526 0.0585921 -2.21481e-20)
(0.926015 0.170062 3.15018e-19)
(1.15397 0.231242 1.93519e-19)
(1.25286 0.255662 8.73003e-20)
(1.28195 0.257116 -2.15072e-19)
(1.28149 0.247294 -2.05101e-19)
(1.27161 0.233356 -5.73101e-20)
(1.26024 0.218398 -1.55458e-20)
(1.24973 0.203531 -1.51991e-20)
(1.24048 0.189104 -2.03425e-19)
(1.23237 0.175224 4.48681e-20)
(1.22518 0.161914 8.15836e-20)
(1.21874 0.149171 2.47226e-21)
(1.21292 0.13698 9.96241e-21)
(1.20763 0.125313 -2.55575e-20)
(1.20277 0.114159 -6.26515e-20)
(1.19827 0.103511 -5.24039e-20)
(1.19409 0.0932348 -1.10168e-19)
(1.19032 0.0829382 1.705e-20)
(0.12692 -0.00414335 -1.4827e-19)
(0.591052 0.0815853 9.36267e-20)
(0.981808 0.195627 -3.90043e-20)
(1.18551 0.252419 9.18725e-21)
(1.26467 0.270946 -3.58868e-19)
(1.28232 0.268019 8.93515e-20)
(1.27657 0.255516 5.78569e-20)
(1.26464 0.239995 -4.01785e-20)
(1.25259 0.224015 1.44294e-19)
(1.24189 0.208405 -2.36715e-21)
(1.23262 0.19339 6.37929e-20)
(1.22455 0.179026 7.50352e-20)
(1.21745 0.165311 -5.16404e-20)
(1.21111 0.152225 -6.13237e-20)
(1.20541 0.139737 -3.35201e-20)
(1.20024 0.127813 -3.61688e-20)
(1.19551 0.116436 3.19119e-20)
(1.19114 0.105568 3.70886e-20)
(1.1871 0.095039 6.01765e-20)
(1.18338 0.0847486 6.99493e-20)
(0.15928 0.00114998 -6.91418e-20)
(0.654604 0.107251 -1.38147e-20)
(1.03068 0.221717 -1.27029e-19)
(1.21042 0.273281 1.18727e-19)
(1.27188 0.285778 2.57696e-19)
(1.28005 0.278649 1.41547e-19)
(1.27026 0.263647 -6.40608e-20)
(1.25692 0.246626 -3.75838e-20)
(1.24446 0.229634 -8.55195e-20)
(1.2337 0.213263 8.2605e-20)
(1.22448 0.197639 -3.23712e-21)
(1.21651 0.182773 -4.13797e-20)
(1.20952 0.168639 -4.89768e-20)
(1.20331 0.155198 -4.72215e-20)
(1.19775 0.142407 9.86221e-20)
(1.19273 0.130222 -3.35809e-20)
(1.18814 0.118618 -3.66452e-20)
(1.18391 0.107524 -6.35214e-21)
(1.18 0.0967693 -6.58708e-21)
(1.17635 0.0864742 -3.88871e-20)
(0.193902 0.00918071 -6.87544e-21)
(0.714791 0.135134 -9.28607e-20)
(1.07271 0.248138 4.34392e-20)
(1.22928 0.293755 -1.55962e-19)
(1.27513 0.300188 -1.09667e-19)
(1.27558 0.289055 1.64332e-20)
(1.2628 0.271705 -1.64533e-21)
(1.24853 0.253239 7.34131e-21)
(1.23588 0.235232 2.32297e-20)
(1.22516 0.21808 4.13101e-20)
(1.21605 0.201827 -5.63778e-20)
(1.20821 0.186444 2.41255e-20)
(1.20138 0.171879 4.23723e-20)
(1.19534 0.158077 -9.27912e-21)
(1.18994 0.144979 -4.16098e-20)
(1.18508 0.132533 2.35133e-20)
(1.18065 0.120699 2.70831e-20)
(1.17657 0.109377 2.76491e-20)
(1.17281 0.0984251 -1.41889e-20)
(1.16924 0.0881149 5.17326e-21)
(0.230186 0.0200135 7.67371e-20)
(0.770708 0.164809 -1.0821e-19)
(1.10811 0.274718 -1.49011e-20)
(1.24269 0.31378 6.37956e-20)
(1.27497 0.314199 1.03581e-19)
(1.26926 0.299264 -3.19011e-20)
(1.25434 0.279688 -9.15252e-20)
(1.23953 0.259809 9.113e-20)
(1.22686 0.240778 -2.471e-20)
(1.21626 0.222826 -2.85814e-20)
(1.20732 0.205927 2.61344e-20)
(1.19967 0.190015 -1.30465e-20)
(1.19303 0.175013 -3.84949e-21)
(1.18719 0.160845 1.03334e-20)
(1.18198 0.147439 1.49297e-20)
(1.17731 0.134732 1.92709e-20)
(1.17305 0.12267 -3.46357e-20)
(1.16914 0.111125 -8.67939e-21)
(1.16552 0.100003 -2.1716e-21)
(1.16204 0.0896679 1.06389e-20)
(0.267443 0.0335893 -4.2117e-20)
(0.821665 0.195876 7.52064e-20)
(1.13714 0.301292 -9.43631e-21)
(1.25117 0.333304 -2.05165e-20)
(1.27187 0.327822 -6.74136e-20)
(1.26135 0.309282 3.17565e-20)
(1.24499 0.287577 2.09567e-20)
(1.22995 0.266305 -2.3272e-20)
(1.21739 0.246237 -3.82237e-21)
(1.20699 0.227469 1.11687e-20)
(1.19828 0.209911 -1.21611e-20)
(1.19088 0.193464 6.14784e-21)
(1.18447 0.17802 -1.34334e-20)
(1.17886 0.163485 7.73732e-21)
(1.17387 0.149773 1.60911e-21)
(1.1694 0.136811 -7.16803e-21)
(1.16534 0.124522 4.14282e-21)
(1.16161 0.112764 -6.52087e-21)
(1.15815 0.101496 2.14417e-21)
(1.15477 0.0911293 7.7144e-21)
(0.304893 0.049755 -3.02494e-20)
(0.867175 0.22795 6.58718e-20)
(1.16012 0.327698 -6.97332e-21)
(1.25525 0.352282 -2.63709e-20)
(1.2662 0.341055 -6.20218e-20)
(1.25205 0.319101 3.12666e-20)
(1.23482 0.295343 2.03954e-20)
(1.21978 0.272687 -1.83495e-20)
(1.20746 0.251571 -2.1202e-22)
(1.19736 0.231976 8.71799e-21)
(1.18895 0.213752 -7.71635e-21)
(1.18182 0.196765 -2.12004e-21)
(1.1757 0.18088 -4.67912e-21)
(1.17035 0.165981 2.81634e-21)
(1.16562 0.151968 1.83614e-21)
(1.16138 0.138755 -7.27494e-21)
(1.15753 0.126247 8.17917e-21)
(1.154 0.114289 -7.91294e-21)
(1.1507 0.102899 -1.94558e-21)
(1.14742 0.0924923 5.04194e-21)
(0.34177 0.0682644 8.75752e-20)
(0.90686 0.260628 -8.88374e-20)
(1.1773 0.353749 -6.44185e-20)
(1.25532 0.370664 8.42453e-20)
(1.25825 0.353892 9.63202e-20)
(1.24149 0.328701 -3.93741e-20)
(1.22385 0.302952 -6.54045e-20)
(1.20904 0.278917 7.17938e-20)
(1.19708 0.256745 -2.00867e-20)
(1.18734 0.236315 -2.35222e-20)
(1.17929 0.217422 1.84792e-20)
(1.17252 0.199897 -3.57132e-21)
(1.16671 0.183573 -8.71792e-21)
(1.16167 0.168316 2.79583e-21)
(1.15721 0.154009 1.35803e-20)
(1.15323 0.140555 1.60199e-20)
(1.14962 0.127834 -2.02196e-20)
(1.14631 0.115691 -5.36917e-21)
(1.14318 0.104205 -3.5279e-21)
(1.14 0.0937531 7.61697e-21)
(0.377534 0.0888946 3.90186e-20)
(0.940776 0.293641 -1.4118e-19)
(1.18914 0.379332 3.97843e-20)
(1.25183 0.388415 -1.04424e-19)
(1.24829 0.3663 -1.22149e-19)
(1.22979 0.338032 1.98735e-20)
(1.21213 0.310343 7.89488e-21)
(1.19772 0.284936 -8.00933e-21)
(1.18623 0.261705 2.67159e-20)
(1.17695 0.24044 -1.06813e-21)
(1.16933 0.220883 -1.75317e-20)
(1.16296 0.202826 3.55362e-21)
(1.15752 0.186072 3.4515e-20)
(1.15282 0.170465 -2.97462e-21)
(1.14868 0.155878 -1.19278e-20)
(1.14497 0.142194 -6.97672e-21)
(1.14161 0.12927 3.06036e-20)
(1.13854 0.116954 1.32614e-20)
(1.13562 0.105409 -7.85328e-21)
(1.13251 0.0949134 -9.33294e-21)
(0.41156 0.111402 -8.66033e-20)
(0.968883 0.326699 -1.68774e-20)
(1.19595 0.404286 -1.24132e-19)
(1.24512 0.405475 1.39766e-19)
(1.23653 0.378242 1.74336e-19)
(1.21702 0.347046 6.78514e-20)
(1.19968 0.317464 -1.24111e-20)
(1.18584 0.290695 1.41242e-20)
(1.17493 0.266411 -7.22891e-20)
(1.16619 0.244319 5.20542e-20)
(1.15907 0.224106 -1.58005e-20)
(1.15315 0.205528 -1.21543e-20)
(1.14813 0.188357 -3.33095e-20)
(1.1438 0.172413 -1.01698e-20)
(1.14001 0.157559 1.58969e-20)
(1.13661 0.143662 -1.04779e-20)
(1.13354 0.130547 -1.38307e-20)
(1.13073 0.118068 4.01124e-21)
(1.12799 0.106501 -2.48769e-21)
(1.125 0.0959694 -2.14157e-20)
(0.443271 0.135524 -1.27988e-19)
(0.991248 0.359525 2.47226e-20)
(1.19806 0.428463 6.00354e-20)
(1.23551 0.421787 -6.60365e-20)
(1.22314 0.389666 -2.3886e-19)
(1.20325 0.355682 1.99174e-20)
(1.18651 0.324251 8.65336e-20)
(1.17339 0.296139 -3.20983e-20)
(1.16317 0.270813 6.93242e-20)
(1.15506 0.247908 -1.85522e-20)
(1.1485 0.227055 4.64154e-20)
(1.1431 0.207971 6.35197e-21)
(1.13855 0.1904 7.95842e-22)
(1.13464 0.174137 -2.78553e-20)
(1.13122 0.159034 -1.31286e-20)
(1.12816 0.144937 -6.07109e-21)
(1.1254 0.131646 5.94569e-21)
(1.12287 0.119044 9.76374e-21)
(1.1203 0.107469 1.75152e-20)
(1.11747 0.0968955 3.03362e-20)
(0.472164 0.160975 1.63226e-19)
(1.00799 0.391859 6.10451e-20)
(1.1958 0.451713 2.03709e-19)
(1.22325 0.437279 9.94591e-20)
(1.20824 0.400512 7.84729e-20)
(1.18851 0.363871 -1.02009e-19)
(1.17262 0.33064 -9.1092e-20)
(1.16038 0.301209 -3.07026e-20)
(1.15096 0.274866 -1.71753e-20)
(1.14357 0.251169 -3.73588e-20)
(1.13766 0.229699 -5.73559e-20)
(1.13282 0.210128 -1.10344e-21)
(1.12879 0.192178 2.68411e-20)
(1.12534 0.175621 5.22727e-20)
(1.12232 0.160287 -5.22268e-20)
(1.11963 0.146007 1.13788e-20)
(1.1172 0.132559 -1.49826e-20)
(1.11497 0.11986 -6.10459e-21)
(1.11259 0.1083 -3.431e-20)
(1.10994 0.0976878 -7.10901e-21)
(0.497819 0.187453 3.58805e-19)
(1.01928 0.423446 -3.39995e-20)
(1.18947 0.473891 -1.59756e-19)
(1.20858 0.451877 -2.19247e-19)
(1.19195 0.410709 -4.73654e-20)
(1.17286 0.371541 -6.98608e-23)
(1.15806 0.336564 1.22625e-19)
(1.14683 0.305847 9.81368e-20)
(1.13834 0.27852 6.5354e-20)
(1.13175 0.254061 -2.66847e-20)
(1.12655 0.232003 2.06713e-20)
(1.12234 0.211976 -1.89353e-20)
(1.11886 0.193668 -3.50052e-20)
(1.11591 0.17684 1.33254e-20)
(1.11333 0.161298 -4.39422e-21)
(1.11103 0.146856 1.21629e-20)
(1.10897 0.133275 1.7549e-20)
(1.10704 0.12051 -3.93203e-21)
(1.10488 0.108982 2.22481e-20)
(1.10242 0.0983341 -1.65095e-20)
(0.519899 0.214632 -2.26059e-19)
(1.02531 0.454042 2.71345e-19)
(1.17937 0.494855 -1.20362e-19)
(1.1917 0.465497 -5.70454e-20)
(1.17435 0.420178 1.79351e-19)
(1.15633 0.378614 1.72758e-19)
(1.14284 0.341956 5.78416e-20)
(1.13278 0.309996 -4.51154e-20)
(1.12531 0.281726 -9.46443e-20)
(1.11959 0.256551 -1.50621e-21)
(1.11517 0.233934 1.1242e-20)
(1.11164 0.213481 2.47739e-20)
(1.10878 0.194847 2.27453e-20)
(1.10636 0.177774 -7.88993e-21)
(1.10426 0.16205 1.56967e-20)
(1.10238 0.147468 5.46034e-21)
(1.1007 0.13378 -8.63798e-21)
(1.0991 0.120977 1.34916e-20)
(1.09717 0.109499 1.2438e-20)
(1.09494 0.0988269 7.11733e-21)
(0.53815 0.242166 3.63668e-20)
(1.02629 0.483399 -4.83613e-19)
(1.16579 0.514464 3.01004e-19)
(1.17278 0.478055 1.84623e-19)
(1.15553 0.428828 -1.86488e-20)
(1.13899 0.385007 -1.48839e-19)
(1.127 0.346744 -1.32166e-20)
(1.11823 0.313606 -3.15654e-20)
(1.11187 0.284441 9.73156e-20)
(1.10712 0.258591 -7.51448e-21)
(1.10355 0.23546 -1.70265e-20)
(1.10077 0.214617 5.03116e-21)
(1.09855 0.195691 -5.88993e-21)
(1.09671 0.178402 -3.9636e-21)
(1.09512 0.162525 1.80102e-20)
(1.09369 0.14783 -2.62587e-20)
(1.09242 0.134063 2.68697e-21)
(1.09116 0.121249 -6.5989e-21)
(1.08949 0.10984 -5.85287e-21)
(1.08751 0.099156 8.19989e-22)
(0.552402 0.269698 -4.54194e-19)
(1.02245 0.511272 4.65913e-20)
(1.14898 0.532577 -1.02139e-19)
(1.15202 0.489459 1.31596e-19)
(1.13562 0.436574 -2.53731e-20)
(1.12088 0.390631 -1.02765e-19)
(1.11056 0.350868 -1.01988e-19)
(1.10321 0.316616 1.99178e-20)
(1.09807 0.286618 -2.12914e-20)
(1.09437 0.260146 1.89774e-20)
(1.09171 0.236547 2.38546e-20)
(1.08973 0.215356 -1.62795e-20)
(1.08821 0.196175 -2.38049e-21)
(1.08699 0.178707 1.11998e-20)
(1.08593 0.162706 -1.54664e-20)
(1.08498 0.147928 4.15948e-21)
(1.08414 0.13411 5.5733e-21)
(1.08324 0.121312 -1.27219e-21)
(1.08185 0.10999 4.8115e-22)
(1.08014 0.0993126 -1.71527e-21)
(0.562564 0.296867 2.06097e-19)
(1.01402 0.537421 4.37778e-19)
(1.12916 0.549032 -4.31256e-19)
(1.1296 0.499616 2.4392e-20)
(1.11472 0.443337 -1.00806e-19)
(1.10202 0.395409 2.00022e-19)
(1.09354 0.354254 -5.661e-20)
(1.08774 0.318973 -5.75148e-21)
(1.08393 0.288211 -1.62172e-20)
(1.08137 0.261178 1.82314e-20)
(1.07969 0.237164 -4.60166e-21)
(1.07855 0.215673 -5.83233e-21)
(1.07778 0.196279 1.59934e-21)
(1.0772 0.178667 -4.70438e-21)
(1.07671 0.162576 4.93893e-21)
(1.07627 0.147746 -8.98645e-21)
(1.07588 0.13391 2.31831e-22)
(1.07535 0.121155 -4.88931e-21)
(1.07426 0.109935 -5.23036e-21)
(1.07287 0.0992886 5.56477e-21)
(0.568623 0.323316 -1.60328e-19)
(1.00132 0.561636 -1.5501e-19)
(1.10654 0.563649 7.01927e-20)
(1.10573 0.508422 1.42158e-20)
(1.09287 0.449033 -1.21332e-20)
(1.08245 0.399268 -1.32244e-19)
(1.076 0.356836 4.59737e-20)
(1.07188 0.320623 -3.49566e-20)
(1.06949 0.289177 5.18188e-21)
(1.06813 0.261651 -9.45351e-21)
(1.06749 0.237282 4.77213e-21)
(1.06726 0.215542 -7.12603e-21)
(1.06727 0.19598 7.48554e-21)
(1.06737 0.178264 3.68011e-21)
(1.06749 0.162119 -1.38426e-21)
(1.06758 0.147271 -4.98774e-21)
(1.06765 0.13345 6.00186e-21)
(1.06752 0.120763 5.63614e-21)
(1.06676 0.109665 1.08546e-20)
(1.06571 0.0990781 7.07717e-21)
(0.570641 0.34869 -3.72874e-19)
(0.984669 0.58375 5.47055e-19)
(1.0814 0.576302 1.79534e-19)
(1.08045 0.515706 -1.25555e-19)
(1.07012 0.453578 9.37634e-20)
(1.06226 0.402134 2.65107e-20)
(1.05799 0.35855 2.67335e-20)
(1.05566 0.321515 -3.60772e-21)
(1.05478 0.289475 3.93515e-21)
(1.05471 0.261532 -3.07143e-21)
(1.05517 0.236872 -5.8084e-21)
(1.05588 0.21494 -9.97532e-21)
(1.05671 0.195258 -4.14404e-20)
(1.05753 0.177481 1.67138e-20)
(1.05828 0.16132 7.8802e-21)
(1.05892 0.14649 1.28384e-20)
(1.05948 0.132719 -1.63827e-20)
(1.05977 0.120123 6.99813e-22)
(1.05936 0.109165 1.49534e-20)
(1.05868 0.098678 4.37597e-20)
(0.568754 0.372625 8.37453e-19)
(0.964391 0.603562 -4.32603e-19)
(1.05399 0.586902 5.30448e-20)
(1.05388 0.521335 -1.53111e-19)
(1.0466 0.456851 -4.6833e-20)
(1.04151 0.403933 -2.40456e-21)
(1.03957 0.359338 -7.99871e-21)
(1.03914 0.321601 -3.36376e-21)
(1.03986 0.289067 -1.38499e-22)
(1.04113 0.260789 -5.84893e-20)
(1.04274 0.235909 3.35906e-20)
(1.04444 0.213844 5.61641e-21)
(1.04614 0.194095 1.89683e-20)
(1.0477 0.176303 -2.76776e-20)
(1.0491 0.160164 3.49519e-20)
(1.05032 0.14539 1.20873e-20)
(1.05138 0.131703 -1.72792e-20)
(1.0521 0.119219 -3.26617e-21)
(1.05207 0.108418 -5.41193e-20)
(1.0518 0.0980846 -2.46313e-20)
(0.563164 0.394798 -4.03847e-19)
(0.940509 0.62071 -4.33894e-19)
(1.02467 0.595422 1.35262e-19)
(1.02625 0.52524 7.88411e-20)
(1.0224 0.458765 6.1343e-20)
(1.02027 0.404596 6.41119e-21)
(1.02079 0.359148 -2.99945e-20)
(1.02236 0.320838 5.16389e-20)
(1.02476 0.287917 -8.78992e-20)
(1.02744 0.259394 2.35457e-20)
(1.03025 0.234368 -3.22498e-20)
(1.03298 0.212235 1.16503e-20)
(1.03556 0.192475 -6.38244e-20)
(1.03791 0.174713 2.5339e-20)
(1.03998 0.158639 -5.15832e-20)
(1.0418 0.143961 2.2949e-20)
(1.04337 0.130392 1.04865e-20)
(1.04453 0.118034 3.17477e-20)
(1.0449 0.107397 4.8311e-20)
(1.04507 0.0972857 -6.41882e-21)
(0.554111 0.415051 1.36048e-19)
(0.91313 0.634825 4.32272e-19)
(0.99376 0.601711 -1.07793e-19)
(0.99772 0.527397 9.25704e-20)
(0.99763 0.459241 -1.55062e-20)
(0.998637 0.404058 -4.6184e-20)
(1.00173 0.357929 7.67791e-20)
(1.00539 0.319187 -5.93356e-20)
(1.00954 0.285993 6.2712e-21)
(1.01368 0.25732 1.65503e-20)
(1.01773 0.232229 2.51363e-23)
(1.02152 0.210095 1.16033e-19)
(1.02503 0.190381 5.79638e-20)
(1.02817 0.1727 -2.87795e-20)
(1.03095 0.156735 3.27376e-20)
(1.03338 0.142195 -2.27726e-20)
(1.03547 0.128783 -1.09037e-21)
(1.03707 0.116559 -1.20833e-19)
(1.03788 0.106074 -5.42218e-20)
(1.03852 0.0962547 -4.2802e-20)
(0.541811 0.433252 2.92453e-20)
(0.882728 0.645804 1.26981e-19)
(0.96142 0.605518 -9.17697e-20)
(0.968439 0.527733 -1.18712e-20)
(0.972393 0.458214 -5.16575e-20)
(0.976685 0.402262 -2.79255e-20)
(0.982466 0.355639 -5.06534e-20)
(0.988294 0.316611 -2.98814e-20)
(0.994248 0.283268 -2.95599e-20)
(0.99989 0.254545 6.25185e-20)
(1.00522 0.229473 -5.80503e-20)
(1.01011 0.207409 -1.80273e-19)
(1.01455 0.1878 -4.23417e-20)
(1.01852 0.170251 -2.01198e-20)
(1.02203 0.15444 6.17336e-20)
(1.02508 0.140085 -1.02631e-20)
(1.02769 0.126873 1.24212e-20)
(1.02975 0.1148 -2.33931e-20)
(1.03105 0.104452 8.17026e-20)
(1.03221 0.094992 -5.21691e-20)
(0.52625 0.449029 6.51053e-20)
(0.85005 0.653794 -2.45594e-19)
(0.927922 0.606704 3.82212e-20)
(0.938572 0.526163 -4.1807e-20)
(0.946809 0.455627 2.32701e-20)
(0.954512 0.399156 1.59312e-19)
(0.963068 0.352237 -1.35877e-19)
(0.971131 0.313083 -3.4062e-20)
(0.978943 0.279718 9.12965e-21)
(0.986128 0.251051 -2.25163e-19)
(0.992773 0.226086 3.95303e-20)
(0.998772 0.204165 1.43321e-19)
(1.00418 0.184723 1.40203e-19)
(1.00899 0.167357 3.45777e-20)
(1.01324 0.151745 -5.16205e-20)
(1.01691 0.137617 -1.99052e-20)
(1.02005 0.124649 6.03767e-20)
(1.02263 0.112754 6.19738e-21)
(1.02455 0.102564 9.92298e-21)
(1.0263 0.0936248 8.82246e-20)
(0.507517 0.461803 -3.04293e-19)
(0.815464 0.658614 9.59172e-20)
(0.893477 0.605271 2.04349e-20)
(0.908281 0.522617 3.93305e-21)
(0.921001 0.451429 1.21274e-19)
(0.932217 0.394701 -7.34752e-20)
(0.943622 0.347694 9.71776e-20)
(0.953973 0.308576 -6.52709e-20)
(0.963681 0.275323 -1.07386e-19)
(0.972441 0.246821 3.46209e-19)
(0.980417 0.222053 8.59435e-21)
(0.987549 0.200352 -2.02453e-20)
(0.993937 0.181141 -6.27896e-20)
(0.999601 0.164011 -5.31424e-21)
(1.00459 0.148642 -4.30505e-21)
(1.00889 0.134776 3.9505e-20)
(1.01257 0.122081 -3.3332e-20)
(1.01577 0.110369 -3.08984e-20)
(1.01854 0.100344 6.55764e-21)