-0.428313 	0.428313 	-1.20458e-17 	0.372822 	0.339716 	-1.4387e-19
-0.482588 	0.482588 	-2.13987e-17 	0.540206 	0.442671 	4.05976e-20
-0.540971 	0.540971 	-2.23748e-17 	0.661231 	0.48684 	-5.88942e-20
-0.603773 	0.603773 	-1.48542e-17 	0.752063 	0.489236 	1.42063e-19
-0.671328 	0.671328 	-4.51151e-18 	0.816677 	0.465602 	3.96877e-20
