0 	0.534376 	0 	0.164756 	0.00564469 	9.13775e-21
0 	0.60573 	1.38778e-18 	0.424649 	0.040672 	4.95877e-21
0 	0.682485 	1.38778e-18 	0.644767 	0.0952723 	1.16454e-21
0 	0.765049 	-1.73472e-18 	0.825974 	0.146312 	-6.89678e-21
0 	0.853863 	-3.46945e-18 	0.971322 	0.192836 	1.1258e-21
0 	0.949399 	-2.08167e-18 	1.08181 	0.226074 	-3.72545e-21
