/*--------------------------------*- C++ -*----------------------------------*\
  =========                 |
  \\      /  F ield         | OpenFOAM: The Open Source CFD Toolbox
   \\    /   O peration     | Website:  https://openfoam.org
    \\  /    A nd           | Version:  7
     \\/     M anipulation  |
\*---------------------------------------------------------------------------*/
FoamFile
{
    version     2.0;
    format      ascii;
    class       volScalarField;
    location    "5";
    object      p;
}
// * * * * * * * * * * * * * * * * * * * * * * * * * * * * * * * * * * * * * //

dimensions      [0 2 -2 0 0 0 0];

internalField   nonuniform List<scalar> 
2625
(
-0.0174228
-0.0160892
-0.0148229
-0.0136249
-0.0124955
-0.0114345
-0.0104411
-0.00951393
-0.0086514
-0.00785141
-0.00711156
-0.00642925
-0.00580168
-0.00522592
-0.00469898
-0.00421784
-0.0037795
-0.00338099
-0.00301943
-0.00269204
-0.00239615
-0.00212922
-0.00188887
-0.00167281
-0.00147894
-0.00130528
-0.00115
-0.00101139
-0.000887881
-0.000778019
-0.000680471
-0.000594015
-0.000517527
-0.000449984
-0.00039045
-0.000338072
-0.000292075
-0.000251757
-0.000216479
-0.000185665
-0.00015879
-0.000135394
-0.000115026
-9.73685e-05
-8.19206e-05
-6.87451e-05
-5.66862e-05
-4.75255e-05
-3.6344e-05
-3.37023e-05
-1.48252e-05
-3.61458e-05
-0.0174072
-0.0160729
-0.0148061
-0.0136078
-0.0124783
-0.0114173
-0.0104241
-0.00949736
-0.0086353
-0.00783587
-0.00709667
-0.00641507
-0.00578825
-0.00521328
-0.00468714
-0.0042068
-0.00376925
-0.00337153
-0.00301073
-0.00268407
-0.00238888
-0.00212262
-0.00188288
-0.00166741
-0.00147409
-0.00130093
-0.00114612
-0.00100793
-0.000884808
-0.000775299
-0.000678071
-0.000591902
-0.000515673
-0.000448361
-0.000389033
-0.000336839
-0.000291005
-0.00025083
-0.000215679
-0.000184976
-0.000158199
-0.000134889
-0.000114595
-9.70059e-05
-8.16084e-05
-6.84973e-05
-5.64485e-05
-4.73975e-05
-3.60904e-05
-3.38107e-05
-1.4188e-05
-3.65313e-05
-0.0173771
-0.0160413
-0.0147736
-0.0135747
-0.012445
-0.0113842
-0.0103914
-0.00946529
-0.00860415
-0.00780582
-0.00706787
-0.00638763
-0.00576227
-0.0051888
-0.00466421
-0.00418543
-0.00374942
-0.00335321
-0.00299388
-0.00266863
-0.0023748
-0.00210982
-0.0018713
-0.00165696
-0.00146469
-0.00129251
-0.00113859
-0.00100123
-0.000878857
-0.000770031
-0.000673421
-0.000587809
-0.000512081
-0.000445217
-0.000386289
-0.00033445
-0.000288931
-0.000249035
-0.000214129
-0.000183643
-0.000157055
-0.000133912
-0.000113761
-9.63013e-05
-8.10088e-05
-6.80054e-05
-5.60151e-05
-4.70891e-05
-3.57365e-05
-3.37158e-05
-1.37453e-05
-3.66638e-05
-0.0173334
-0.0159956
-0.0147264
-0.0135267
-0.0123967
-0.0113361
-0.0103439
-0.00941882
-0.008559
-0.00776227
-0.00702614
-0.00634789
-0.00572463
-0.00515336
-0.00463101
-0.00415448
-0.00372071
-0.00332669
-0.00296949
-0.0026463
-0.00235442
-0.00209131
-0.00185453
-0.00164183
-0.00145109
-0.00128032
-0.0011277
-0.000991533
-0.000870249
-0.000762411
-0.000666695
-0.000581889
-0.000506885
-0.00044067
-0.00038232
-0.000330995
-0.000285932
-0.00024644
-0.000211889
-0.000181715
-0.000155401
-0.000132498
-0.000112557
-9.52819e-05
-8.01434e-05
-6.72906e-05
-5.53966e-05
-4.66251e-05
-3.52671e-05
-3.34961e-05
-1.33139e-05
-3.6646e-05
-0.0172769
-0.0159365
-0.0146655
-0.0134647
-0.0123344
-0.011274
-0.0102827
-0.00935893
-0.00850084
-0.00770618
-0.0069724
-0.00629672
-0.00567619
-0.00510776
-0.0045883
-0.00411467
-0.00368378
-0.00329259
-0.00293814
-0.00261759
-0.00232824
-0.00206752
-0.00183299
-0.0016224
-0.00143362
-0.00126467
-0.00111372
-0.000979083
-0.000859197
-0.000752628
-0.000658061
-0.000574291
-0.000500217
-0.000434834
-0.000377226
-0.000326562
-0.000282084
-0.000243109
-0.000209014
-0.000179242
-0.00015328
-0.000130685
-0.000111011
-9.39738e-05
-7.90339e-05
-6.63722e-05
-5.46065e-05
-4.60233e-05
-3.46811e-05
-3.31886e-05
-1.28182e-05
-3.65386e-05
-0.0172084
-0.0158648
-0.0145917
-0.0133897
-0.012259
-0.011199
-0.0102087
-0.00928656
-0.00843058
-0.00763845
-0.00690753
-0.00623497
-0.00561776
-0.00505276
-0.0045368
-0.00406669
-0.00363928
-0.00325151
-0.00290037
-0.00258302
-0.00229671
-0.00203887
-0.00180707
-0.00159902
-0.0014126
-0.00124584
-0.0010969
-0.000964111
-0.000845907
-0.000740866
-0.000647681
-0.000565157
-0.000492201
-0.000427819
-0.000371104
-0.000321234
-0.00027746
-0.000239106
-0.00020556
-0.00017627
-0.00015073
-0.000128506
-0.000109154
-9.24019e-05
-7.77016e-05
-6.52676e-05
-5.36603e-05
-4.52948e-05
-3.3991e-05
-3.27967e-05
-1.22727e-05
-3.63414e-05
-0.0171285
-0.0157814
-0.0145058
-0.0133025
-0.0121714
-0.0111119
-0.0101228
-0.00920258
-0.00834909
-0.00755991
-0.00683234
-0.00616343
-0.00555008
-0.00498908
-0.00447719
-0.00401117
-0.00358781
-0.003204
-0.00285671
-0.00254306
-0.00226029
-0.00200579
-0.00177713
-0.00157203
-0.00138834
-0.00122411
-0.0010775
-0.000946836
-0.000830576
-0.000727299
-0.000635711
-0.000554624
-0.000482959
-0.000419732
-0.000364047
-0.000315092
-0.00027213
-0.000234493
-0.000201579
-0.000172844
-0.000147792
-0.000125995
-0.000107015
-9.05904e-05
-7.61672e-05
-6.39938e-05
-5.25732e-05
-4.44499e-05
-3.32097e-05
-3.23222e-05
-1.16956e-05
-3.6049e-05
-0.0170379
-0.0156868
-0.0144086
-0.0132039
-0.0120724
-0.0110134
-0.0100258
-0.00910781
-0.00825717
-0.00747138
-0.00674762
-0.00608285
-0.00547388
-0.00491741
-0.00441014
-0.00394873
-0.00352995
-0.00315062
-0.00280767
-0.00249819
-0.00221939
-0.00196866
-0.00174354
-0.00154174
-0.00136113
-0.00119974
-0.00105574
-0.000927473
-0.000813394
-0.000712097
-0.000622299
-0.000542825
-0.000472607
-0.000410675
-0.000356144
-0.000308215
-0.000266162
-0.000229329
-0.000197123
-0.00016901
-0.000144503
-0.000123184
-0.000104621
-8.85626e-05
-7.44505e-05
-6.25669e-05
-5.13597e-05
-4.34989e-05
-3.23485e-05
-3.17695e-05
-1.1097e-05
-3.5661e-05
-0.0169372
-0.0155819
-0.0143008
-0.0130945
-0.0119626
-0.0109045
-0.00991854
-0.00900302
-0.0081556
-0.0073736
-0.0066541
-0.00599395
-0.00538985
-0.00483842
-0.00433625
-0.00387997
-0.00346625
-0.00309187
-0.00275372
-0.00244884
-0.00217443
-0.00192785
-0.00170663
-0.00150847
-0.00133125
-0.00117298
-0.00103186
-0.000906224
-0.000794542
-0.000695421
-0.000607588
-0.000529885
-0.000461256
-0.000400744
-0.00034748
-0.000300676
-0.00025962
-0.000223668
-0.000192238
-0.000164808
-0.0001409
-0.000120104
-0.000101997
-8.63405e-05
-7.25705e-05
-6.10023e-05
-5.00335e-05
-4.24518e-05
-3.14179e-05
-3.11435e-05
-1.04848e-05
-3.51795e-05
-0.0168268
-0.015467
-0.014183
-0.0129751
-0.011843
-0.0107857
-0.00980168
-0.00888896
-0.0080451
-0.00726729
-0.00655248
-0.0058974
-0.00529863
-0.00475271
-0.00425613
-0.00380544
-0.00339724
-0.00302824
-0.00269531
-0.00239544
-0.00212579
-0.00188372
-0.00166673
-0.00147252
-0.00129896
-0.00114408
-0.00100607
-0.000883283
-0.000774193
-0.000677423
-0.000591715
-0.000515925
-0.000449012
-0.000390034
-0.000338137
-0.000292547
-0.000252567
-0.000217565
-0.000186973
-0.000160278
-0.000137016
-0.000116784
-9.91703e-05
-8.39454e-05
-7.05454e-05
-5.9315e-05
-4.86078e-05
-4.13179e-05
-3.04279e-05
-3.04489e-05
-9.86631e-06
-3.4607e-05
-0.0167074
-0.0153429
-0.0140558
-0.0128463
-0.011714
-0.0106578
-0.00967592
-0.00876632
-0.00792636
-0.00715313
-0.00644342
-0.00579383
-0.00520085
-0.00466088
-0.00417033
-0.00372566
-0.0033234
-0.0029602
-0.00263288
-0.00233838
-0.00207385
-0.0018366
-0.00162415
-0.00143417
-0.00126453
-0.00111327
-0.000978585
-0.000858833
-0.000752511
-0.000658251
-0.000574809
-0.000501058
-0.000435975
-0.000378632
-0.000328191
-0.000283895
-0.000245062
-0.000211071
-0.000181371
-0.000155459
-0.000132884
-0.000113253
-9.61633e-05
-8.13973e-05
-6.83923e-05
-5.75187e-05
-4.70948e-05
-4.01064e-05
-2.93876e-05
-2.96902e-05
-9.24807e-06
-3.39468e-05
-0.0165794
-0.0152099
-0.0139197
-0.0127087
-0.0115764
-0.0105214
-0.00954194
-0.00863574
-0.00780004
-0.00703175
-0.00632754
-0.00568387
-0.00509708
-0.00456349
-0.00407938
-0.00364114
-0.00324521
-0.00288819
-0.00256683
-0.00227804
-0.00201894
-0.00178682
-0.00157917
-0.00139367
-0.00122818
-0.00108075
-0.000949587
-0.000833049
-0.000729651
-0.000638041
-0.000556992
-0.000485394
-0.00042224
-0.000366621
-0.000317716
-0.000274784
-0.000237158
-0.000204234
-0.000175473
-0.000150385
-0.000128534
-0.000109535
-9.29988e-05
-7.8715e-05
-6.61275e-05
-5.56268e-05
-4.55064e-05
-3.88257e-05
-2.83059e-05
-2.88719e-05
-8.6361e-06
-3.32021e-05
-0.0164432
-0.0150687
-0.0137753
-0.0125629
-0.0114306
-0.0103771
-0.00940033
-0.00849785
-0.00766674
-0.00690377
-0.00620543
-0.00556807
-0.00498788
-0.00446105
-0.00398379
-0.00355235
-0.00316312
-0.00281262
-0.00249755
-0.00221478
-0.0019614
-0.00173467
-0.00153207
-0.00135128
-0.00119015
-0.00104674
-0.000919263
-0.000806093
-0.000705758
-0.000616923
-0.000538379
-0.000469032
-0.000407896
-0.00035408
-0.00030678
-0.000265273
-0.000228909
-0.000197098
-0.000169318
-0.000145092
-0.000123996
-0.000105656
-8.96978e-05
-7.59163e-05
-6.37662e-05
-5.36516e-05
-4.38537e-05
-3.74837e-05
-2.71909e-05
-2.79984e-05
-8.03571e-06
-3.23768e-05
-0.0162993
-0.0149197
-0.0136232
-0.0124094
-0.0112774
-0.0102255
-0.00925169
-0.00835323
-0.00752705
-0.00676974
-0.00607766
-0.00544698
-0.00487376
-0.00435408
-0.00388401
-0.00345973
-0.00307754
-0.00273388
-0.00242541
-0.00214894
-0.00190154
-0.00168044
-0.00148311
-0.00130723
-0.00115065
-0.00101143
-0.000887787
-0.000778121
-0.000680971
-0.00059502
-0.000519077
-0.000452069
-0.000393028
-0.000341082
-0.000295448
-0.000255419
-0.000220363
-0.000189706
-0.000162943
-0.000139609
-0.000119297
-0.00010164
-8.62803e-05
-7.30179e-05
-6.13228e-05
-5.16046e-05
-4.21469e-05
-3.60879e-05
-2.60501e-05
-2.70738e-05
-7.4516e-06
-3.14747e-05
-0.016148
-0.0147634
-0.0134638
-0.0122487
-0.0111171
-0.0100672
-0.00909658
-0.00820244
-0.00738152
-0.00663023
-0.00594476
-0.00532111
-0.00475523
-0.00424304
-0.00378051
-0.00336372
-0.00298887
-0.00265235
-0.00235074
-0.00208083
-0.00183964
-0.00162439
-0.00143254
-0.00126175
-0.00110988
-0.000974988
-0.00085532
-0.000749276
-0.000655418
-0.000572446
-0.000499189
-0.000434594
-0.000377714
-0.000327698
-0.00028378
-0.000245274
-0.000211566
-0.000182098
-0.000156383
-0.000133966
-0.000114461
-9.75066e-05
-8.27647e-05
-7.00354e-05
-5.88106e-05
-4.94968e-05
-4.03957e-05
-3.46453e-05
-2.48905e-05
-2.61021e-05
-6.8879e-06
-3.05001e-05
-0.0159897
-0.0146001
-0.0132975
-0.0120814
-0.0109504
-0.00990265
-0.00893552
-0.00804601
-0.00723067
-0.00648574
-0.00580721
-0.00519096
-0.00463275
-0.00412838
-0.00367371
-0.0032647
-0.00289748
-0.00256836
-0.00227387
-0.00201076
-0.00177599
-0.00156679
-0.00138058
-0.00121504
-0.00106802
-0.000937594
-0.000822012
-0.000719695
-0.00062922
-0.000549307
-0.000478809
-0.000416691
-0.000362028
-0.00031399
-0.000271833
-0.000234887
-0.00020256
-0.000174311
-0.000149668
-0.000128192
-0.000109513
-9.32773e-05
-7.91682e-05
-6.69832e-05
-5.62422e-05
-4.73381e-05
-3.86091e-05
-3.31624e-05
-2.37185e-05
-2.50872e-05
-6.34817e-06
-2.94571e-05
-0.0158249
-0.0144303
-0.0131249
-0.0119078
-0.0107777
-0.00973236
-0.00876901
-0.00788444
-0.00707501
-0.00633676
-0.00566552
-0.00505697
-0.00450675
-0.00401052
-0.003564
-0.00316306
-0.00280373
-0.00248226
-0.00219511
-0.00193899
-0.00171084
-0.00150785
-0.00132745
-0.00116729
-0.00102525
-0.000899402
-0.000788006
-0.000689502
-0.000602488
-0.000525705
-0.000458024
-0.000398436
-0.000346037
-0.000300018
-0.000259657
-0.000224304
-0.000193386
-0.000166378
-0.00014283
-0.000122311
-0.000104475
-8.89704e-05
-7.55069e-05
-6.38747e-05
-5.3629e-05
-4.51379e-05
-3.67953e-05
-3.16452e-05
-2.254e-05
-2.40328e-05
-5.83545e-06
-2.835e-05
-0.0156538
-0.0142543
-0.0129462
-0.0117285
-0.0105995
-0.00955681
-0.00859753
-0.00771821
-0.006915
-0.00618375
-0.00552011
-0.00491958
-0.00437766
-0.00388985
-0.00345175
-0.00305914
-0.00270794
-0.00239434
-0.00211474
-0.0018658
-0.00164443
-0.00144781
-0.00127335
-0.0011187
-0.00098174
-0.000860559
-0.000753432
-0.000658816
-0.000575328
-0.00050173
-0.000436917
-0.000379903
-0.000329806
-0.000285839
-0.000247303
-0.000213567
-0.00018408
-0.000158332
-0.000135894
-0.000116347
-9.93661e-05
-8.46032e-05
-7.17956e-05
-6.07224e-05
-5.09818e-05
-4.29049e-05
-3.49621e-05
-3.00995e-05
-2.13603e-05
-2.29426e-05
-5.35226e-06
-2.71832e-05
-0.0154768
-0.0140726
-0.012762
-0.0115438
-0.0104162
-0.00937644
-0.00842153
-0.00754776
-0.00675108
-0.00602715
-0.00537141
-0.00477921
-0.00424587
-0.00376675
-0.00333733
-0.00295328
-0.00261043
-0.0023049
-0.00203303
-0.00179143
-0.00157699
-0.00138686
-0.00121845
-0.00106942
-0.000937634
-0.000821201
-0.000718413
-0.000627745
-0.000547835
-0.000477469
-0.000415564
-0.000361158
-0.000313392
-0.000271503
-0.000234814
-0.000202715
-0.000174675
-0.000150202
-0.000128887
-0.000110322
-9.42059e-05
-8.01916e-05
-6.80479e-05
-5.75378e-05
-4.83105e-05
-4.0647e-05
-3.31165e-05
-2.85305e-05
-2.01843e-05
-2.182e-05
-4.90062e-06
-2.5961e-05
-0.0152942
-0.0138855
-0.0125726
-0.0113542
-0.0102281
-0.00919169
-0.00824144
-0.00737352
-0.00658369
-0.00586737
-0.00521983
-0.00463624
-0.00411174
-0.00364156
-0.00322106
-0.00284578
-0.00251149
-0.0022142
-0.00195022
-0.0017161
-0.00150872
-0.0013252
-0.00116295
-0.00101961
-0.000893074
-0.000781455
-0.000683062
-0.000596391
-0.000520101
-0.000453001
-0.000394035
-0.000342262
-0.00029685
-0.000257059
-0.000222233
-0.000191784
-0.000165203
-0.000142014
-0.000121831
-0.000104256
-8.90113e-05
-7.57503e-05
-6.42763e-05
-5.43313e-05
-4.56239e-05
-3.83715e-05
-3.12648e-05
-2.6943e-05
-1.90162e-05
-2.06683e-05
-4.48211e-06
-2.46879e-05
-0.0151064
-0.0136933
-0.0123784
-0.01116
-0.0100359
-0.00900295
-0.00805766
-0.00719591
-0.00641321
-0.00570481
-0.00506575
-0.00449103
-0.00397562
-0.00351463
-0.00310325
-0.00273695
-0.00241138
-0.0021225
-0.00186654
-0.00164004
-0.00143983
-0.00126301
-0.00110699
-0.000969418
-0.000848193
-0.000741438
-0.000647484
-0.000564845
-0.000492206
-0.000428399
-0.000372393
-0.000323272
-0.00028023
-0.000242548
-0.000209596
-0.000180806
-0.000155692
-0.000133794
-0.000114748
-9.81671e-05
-8.3798e-05
-7.12927e-05
-6.04923e-05
-5.11126e-05
-4.29304e-05
-3.60853e-05
-2.94129e-05
-2.53417e-05
-1.78597e-05
-1.9491e-05
-4.09784e-06
-2.33683e-05
-0.0149136
-0.0134964
-0.0121797
-0.0109616
-0.00983968
-0.00881062
-0.0078706
-0.00701531
-0.00624004
-0.00553982
-0.00490952
-0.00434392
-0.00383785
-0.00338625
-0.0029842
-0.00262704
-0.00231036
-0.00203002
-0.00178222
-0.00156344
-0.00137048
-0.00120045
-0.00105073
-0.000918978
-0.000803109
-0.000701258
-0.000611774
-0.000533194
-0.000464227
-0.00040373
-0.000350698
-0.00030424
-0.000263576
-0.000228011
-0.000196939
-0.000169813
-0.000146169
-0.000125565
-0.000107658
-9.20719e-05
-7.85804e-05
-6.68311e-05
-5.67065e-05
-4.78905e-05
-4.02375e-05
-3.37944e-05
-2.7566e-05
-2.37306e-05
-1.67183e-05
-1.82911e-05
-3.74854e-06
-2.20066e-05
-0.0147162
-0.0132952
-0.0119769
-0.0107594
-0.00963998
-0.00861506
-0.00768062
-0.00683208
-0.00606453
-0.00537278
-0.00475148
-0.00419524
-0.00369873
-0.00325671
-0.00286418
-0.00251633
-0.00220867
-0.001937
-0.00169745
-0.00148648
-0.00130085
-0.00113766
-0.000994297
-0.000868414
-0.000757934
-0.000661014
-0.000576021
-0.000501516
-0.000436233
-0.000379055
-0.000329003
-0.000285214
-0.000246931
-0.000213484
-0.000184293
-0.000158831
-0.000136657
-0.000117346
-0.000100579
-8.59859e-05
-7.33717e-05
-6.23766e-05
-5.29282e-05
-4.4673e-05
-3.7552e-05
-3.15045e-05
-2.57289e-05
-2.21137e-05
-1.55948e-05
-1.70717e-05
-3.43451e-06
-2.06072e-05
-0.0145144
-0.0130898
-0.0117703
-0.0105538
-0.0094371
-0.00841664
-0.00748806
-0.00664658
-0.00588702
-0.00520399
-0.00459194
-0.00404529
-0.00355853
-0.0031263
-0.00274343
-0.00240503
-0.00210652
-0.00184363
-0.00161242
-0.00140933
-0.0012311
-0.0010748
-0.000937826
-0.000817838
-0.000712771
-0.000620796
-0.000540306
-0.000469883
-0.000408288
-0.000354431
-0.000307359
-0.000266236
-0.000230332
-0.000199001
-0.000171687
-0.000147885
-0.000127178
-0.000109156
-9.35251e-05
-7.99227e-05
-6.81835e-05
-5.79392e-05
-4.9166e-05
-4.14674e-05
-3.488e-05
-2.92207e-05
-2.39057e-05
-2.04947e-05
-1.44915e-05
-1.58359e-05
-3.15573e-06
-1.91744e-05
-0.0143085
-0.0128806
-0.0115603
-0.0103449
-0.00923138
-0.00821568
-0.00729328
-0.00645912
-0.00570784
-0.00503378
-0.00443121
-0.00389436
-0.00341755
-0.00299526
-0.0026222
-0.00229338
-0.00200413
-0.00175009
-0.00152731
-0.00133215
-0.00116136
-0.00101199
-0.000881431
-0.000767356
-0.000667711
-0.000580688
-0.000504702
-0.000438361
-0.00038045
-0.000329908
-0.00028581
-0.000247346
-0.000213813
-0.000184591
-0.000159147
-0.000136998
-0.000117752
-0.000101013
-8.65124e-05
-7.3895e-05
-6.30266e-05
-5.35281e-05
-4.54278e-05
-3.82802e-05
-3.22271e-05
-2.69477e-05
-2.21001e-05
-1.88768e-05
-1.34107e-05
-1.45865e-05
-2.91184e-06
-1.77125e-05
-0.0140988
-0.012668
-0.011347
-0.0101332
-0.00902314
-0.00801252
-0.00709658
-0.00627004
-0.00552728
-0.00486244
-0.00426957
-0.00374272
-0.00327602
-0.00286383
-0.00250072
-0.00218159
-0.00190167
-0.00165657
-0.00144226
-0.00125509
-0.00109177
-0.000949349
-0.000825218
-0.000717061
-0.00062284
-0.000540766
-0.000469277
-0.000407007
-0.000352771
-0.000305533
-0.000264396
-0.000228579
-0.000197406
-0.00017028
-0.000146696
-0.000126191
-0.000108395
-9.29307e-05
-7.95536e-05
-6.79138e-05
-5.79105e-05
-4.91515e-05
-4.17204e-05
-3.51174e-05
-2.9598e-05
-2.46897e-05
-2.03156e-05
-1.72632e-05
-1.23538e-05
-1.33265e-05
-2.70215e-06
-1.62256e-05
-0.0138856
-0.0124521
-0.0111309
-0.00991904
-0.00881269
-0.00780745
-0.00689826
-0.00607961
-0.00534563
-0.00469025
-0.00410729
-0.00359061
-0.00313419
-0.00273223
-0.00237918
-0.00206983
-0.00179933
-0.00156322
-0.00135743
-0.00117828
-0.00102244
-0.000886983
-0.000769284
-0.000667042
-0.000578236
-0.000501098
-0.000434091
-0.000375878
-0.000325298
-0.000281346
-0.000243154
-0.000209968
-0.000181138
-0.000156094
-0.000134355
-0.000115481
-9.91246e-05
-8.49237e-05
-7.26603e-05
-6.19893e-05
-5.28439e-05
-4.48167e-05
-3.805e-05
-3.19842e-05
-2.69972e-05
-2.24506e-05
-1.85547e-05
-1.56567e-05
-1.13223e-05
-1.20585e-05
-2.52576e-06
-1.47181e-05
-0.013669
-0.0122334
-0.0109123
-0.00970258
-0.00860032
-0.00760077
-0.00669863
-0.00588813
-0.00516318
-0.00451746
-0.0039446
-0.00343827
-0.00299228
-0.00260067
-0.00225777
-0.00195828
-0.00169727
-0.0014702
-0.00127296
-0.00110183
-0.000953495
-0.000824993
-0.000713718
-0.000617377
-0.000533968
-0.000461746
-0.0003992
-0.00034502
-0.000298073
-0.000257386
-0.000222117
-0.00019154
-0.000165034
-0.000142054
-0.000122144
-0.000104884
-8.99536e-05
-7.70037e-05
-6.5843e-05
-5.61303e-05
-4.78343e-05
-4.05302e-05
-3.44221e-05
-2.88854e-05
-2.44285e-05
-2.02336e-05
-1.68202e-05
-1.40601e-05
-1.03171e-05
-1.07853e-05
-2.3815e-06
-1.31939e-05
-0.0134495
-0.0120119
-0.0106913
-0.00948416
-0.0083863
-0.00739275
-0.00649794
-0.00569586
-0.00498016
-0.00434432
-0.00378174
-0.00328592
-0.00285048
-0.00246933
-0.00213668
-0.00184712
-0.00159563
-0.00137763
-0.00118896
-0.00102587
-0.000885025
-0.000763469
-0.000658598
-0.000568136
-0.000490099
-0.000422767
-0.000364653
-0.000314477
-0.000271136
-0.000233685
-0.000201313
-0.000173321
-0.000149116
-0.000128178
-0.000110078
-9.44155e-05
-8.08949e-05
-6.91815e-05
-5.91107e-05
-5.03447e-05
-4.28885e-05
-3.62977e-05
-3.08416e-05
-2.58251e-05
-2.18953e-05
-1.8042e-05
-1.51139e-05
-1.24756e-05
-9.33891e-06
-9.50939e-06
-2.26799e-06
-1.16569e-05
-0.0132271
-0.0117881
-0.0104683
-0.00926405
-0.00817092
-0.00718367
-0.00629647
-0.00550305
-0.00479683
-0.00417106
-0.00361894
-0.00313376
-0.002709
-0.00233841
-0.00201607
-0.00173649
-0.00149456
-0.00128565
-0.00110555
-0.000950489
-0.000817123
-0.000702491
-0.000603999
-0.000519385
-0.000446687
-0.00038421
-0.000330494
-0.000284288
-0.00024452
-0.000210273
-0.000180768
-0.000155333
-0.000133404
-0.000114485
-9.81728e-05
-8.40878e-05
-7.19593e-05
-6.14665e-05
-5.24717e-05
-4.46395e-05
-3.80122e-05
-3.21244e-05
-2.73126e-05
-2.2807e-05
-1.94004e-05
-1.58784e-05
-1.34377e-05
-1.09057e-05
-8.38819e-06
-8.23339e-06
-2.18369e-06
-1.01111e-05
-0.0130022
-0.0115621
-0.0102435
-0.0090425
-0.00795443
-0.00697377
-0.00609445
-0.00530994
-0.00461342
-0.0039979
-0.00345639
-0.00298199
-0.00256801
-0.00220805
-0.00189609
-0.00162652
-0.00139418
-0.00119436
-0.00102283
-0.000875784
-0.000749871
-0.000642133
-0.000549984
-0.000471181
-0.000403783
-0.00034612
-0.000296762
-0.000254487
-0.000218254
-0.000187178
-0.000160506
-0.000137598
-0.000117915
-0.000100989
-8.64407e-05
-7.3912e-05
-6.31564e-05
-5.38669e-05
-4.59329e-05
-3.90207e-05
-3.32108e-05
-2.80147e-05
-2.38388e-05
-1.98343e-05
-1.69463e-05
-1.37452e-05
-1.1793e-05
-9.35237e-06
-7.46513e-06
-6.95968e-06
-2.12692e-06
-8.56009e-06
-0.012775
-0.0113342
-0.0100171
-0.00881976
-0.00773707
-0.0067633
-0.00589212
-0.00511675
-0.00443013
-0.00382505
-0.00329429
-0.00283078
-0.00242767
-0.00207841
-0.00177687
-0.00151735
-0.0012946
-0.00110388
-0.00094089
-0.000801835
-0.000683343
-0.00058246
-0.000496613
-0.000423575
-0.000361431
-0.000308536
-0.000263492
-0.000225105
-0.000192366
-0.00016442
-0.000140546
-0.00012013
-0.000102664
-8.77025e-05
-7.48931e-05
-6.38976e-05
-5.44945e-05
-4.63899e-05
-3.95005e-05
-3.34935e-05
-2.84885e-05
-2.39723e-05
-2.04233e-05
-1.69099e-05
-1.45352e-05
-1.16447e-05
-1.0181e-05
-7.81751e-06
-6.56971e-06
-5.69058e-06
-2.09586e-06
-7.00749e-06
-0.0125458
-0.0111046
-0.00978948
-0.00859607
-0.00751908
-0.00655248
-0.0056897
-0.0049237
-0.00424717
-0.00365268
-0.00313281
-0.0026803
-0.00228813
-0.00194964
-0.00165855
-0.00140909
-0.00119593
-0.00101428
-0.00085982
-0.00072872
-0.000617607
-0.000523532
-0.000443936
-0.000376613
-0.000319671
-0.000271494
-0.000230714
-0.000196168
-0.000166879
-0.000142021
-0.000120906
-0.000102947
-8.76644e-05
-7.46373e-05
-6.35397e-05
-5.40531e-05
-4.59807e-05
-3.90415e-05
-3.31796e-05
-2.80624e-05
-2.38491e-05
-2.00005e-05
-1.70689e-05
-1.40361e-05
-1.21688e-05
-9.57858e-06
-8.6025e-06
-6.30286e-06
-5.70172e-06
-4.42832e-06
-2.08863e-06
-5.45674e-06
-0.0123147
-0.0108736
-0.00956078
-0.00837166
-0.00730068
-0.00634154
-0.0054874
-0.00473098
-0.00406472
-0.00348098
-0.00297212
-0.0025307
-0.00214955
-0.00182185
-0.00154125
-0.00130184
-0.00109827
-0.000925667
-0.000779694
-0.000656504
-0.00055272
-0.0004654
-0.000392
-0.000330335
-0.000278538
-0.000235024
-0.000198454
-0.000167699
-0.000141811
-0.000119998
-0.0001016
-8.60603e-05
-7.29263e-05
-6.18026e-05
-5.23886e-05
-4.43855e-05
-3.7621e-05
-3.18269e-05
-2.69746e-05
-2.27312e-05
-1.92959e-05
-1.61021e-05
-1.37777e-05
-1.12151e-05
-9.84858e-06
-7.54858e-06
-7.05825e-06
-4.81e-06
-4.86081e-06
-3.17502e-06
-2.10325e-06
-3.91111e-06
-0.012082
-0.0106413
-0.00933124
-0.00814676
-0.00708208
-0.00613068
-0.00528543
-0.00453878
-0.00388297
-0.00331011
-0.00281237
-0.00238212
-0.00201204
-0.00169517
-0.00142506
-0.00119571
-0.00100169
-0.000838107
-0.000700578
-0.000585248
-0.000488736
-0.000408111
-0.000340845
-0.000284775
-0.000238063
-0.000199152
-0.000166737
-0.000139717
-0.000117181
-9.83654e-05
-8.26411e-05
-6.94809e-05
-5.84596e-05
-4.92066e-05
-4.14466e-05
-3.49005e-05
-2.94205e-05
-2.47504e-05
-2.08891e-05
-1.7503e-05
-1.48314e-05
-1.22794e-05
-1.05515e-05
-8.44836e-06
-7.57564e-06
-5.55605e-06
-5.54868e-06
-3.34037e-06
-4.04646e-06
-1.93268e-06
-2.13774e-06
-2.37372e-06
-0.0118478
-0.0104081
-0.00910107
-0.00792156
-0.0068635
-0.00592009
-0.00508395
-0.00434729
-0.00370208
-0.00314022
-0.0026537
-0.00223469
-0.00187572
-0.00156971
-0.00131008
-0.00109077
-0.000906285
-0.000751671
-0.000622534
-0.000515004
-0.000425701
-0.000351705
-0.000290505
-0.000239965
-0.000198271
-0.000163902
-0.00013558
-0.000112241
-9.30028e-05
-7.71354e-05
-6.404e-05
-5.3218e-05
-4.4272e-05
-3.68557e-05
-3.07194e-05
-2.56031e-05
-2.13832e-05
-1.78155e-05
-1.49262e-05
-1.23804e-05
-1.04577e-05
-8.53426e-06
-7.39184e-06
-5.73745e-06
-5.35088e-06
-3.60218e-06
-4.07406e-06
-1.89524e-06
-3.25807e-06
-7.03217e-07
-2.19008e-06
-8.47525e-07
-0.0116125
-0.0101741
-0.00887049
-0.00769628
-0.00664513
-0.00570997
-0.00488316
-0.00415666
-0.0035222
-0.00297147
-0.00249624
-0.00208854
-0.00174071
-0.00144556
-0.00119641
-0.000987114
-0.000812112
-0.000666419
-0.000545614
-0.000445818
-0.000363655
-0.000296216
-0.000241012
-0.000195929
-0.000159186
-0.000129291
-0.000105001
-8.52823e-05
-6.92879e-05
-5.63182e-05
-4.58052e-05
-3.72789e-05
-3.03696e-05
-2.47554e-05
-2.02115e-05
-1.6497e-05
-1.35124e-05
-1.1025e-05
-9.08822e-06
-7.36537e-06
-6.17648e-06
-4.86808e-06
-4.29977e-06
-3.08345e-06
-3.17495e-06
-1.68795e-06
-2.63449e-06
-4.75762e-07
-2.49492e-06
5.11597e-07
-2.25824e-06
6.64688e-07
-0.0113762
-0.00993951
-0.00863969
-0.00747111
-0.00642715
-0.00550049
-0.00468321
-0.00396704
-0.00334348
-0.00280398
-0.00234013
-0.00194376
-0.0016071
-0.00132282
-0.00108412
-0.000884801
-0.000719236
-0.000582405
-0.000469866
-0.000377732
-0.000302634
-0.000241676
-0.000192389
-0.00015269
-0.000120826
-9.5336e-05
-7.50118e-05
-5.88536e-05
-4.60462e-05
-3.59219e-05
-2.79434e-05
-2.16694e-05
-1.67574e-05
-1.29098e-05
-9.92639e-06
-7.58527e-06
-5.81066e-06
-4.381e-06
-3.37682e-06
-2.4594e-06
-1.98897e-06
-1.28201e-06
-1.27611e-06
-4.87217e-07
-1.04828e-06
1.85852e-07
-1.22995e-06
9.17046e-07
-1.75621e-06
1.71009e-06
-2.34023e-06
2.16031e-06
-0.0111392
-0.00970454
-0.00840887
-0.00724623
-0.00620974
-0.00529181
-0.00448427
-0.0037786
-0.00316604
-0.00263787
-0.00218545
-0.00180047
-0.00147498
-0.00120155
-0.000973284
-0.000783896
-0.000627712
-0.000499676
-0.000395329
-0.00031078
-0.000242666
-0.000188108
-0.00014466
-0.000110266
-8.32052e-05
-6.20496e-05
-4.56246e-05
-3.29637e-05
-2.32851e-05
-1.59528e-05
-1.04601e-05
-6.39387e-06
-3.4391e-06
-1.32187e-06
1.33327e-07
1.12998e-06
1.72035e-06
2.11496e-06
2.20671e-06
2.33641e-06
2.10399e-06
2.22317e-06
1.6786e-06
2.05061e-06
1.0289e-06
2.01858e-06
1.39727e-07
2.2823e-06
-1.0411e-06
2.89073e-06
-2.43409e-06
3.63692e-06
-0.0109015
-0.00946938
-0.00817822
-0.00702183
-0.00599307
-0.0050841
-0.00428649
-0.00359145
-0.00299003
-0.00247326
-0.00203233
-0.00165875
-0.00134444
-0.00108184
-0.000863964
-0.000684454
-0.000537586
-0.000418273
-0.00032204
-0.000244992
-0.000183777
-0.000135534
-9.78416e-05
-6.86723e-05
-4.63366e-05
-2.94419e-05
-1.6847e-05
-7.61931e-06
-1.01018e-06
3.58447e-06
6.64114e-06
8.54456e-06
9.58284e-06
1.00062e-05
9.96596e-06
9.64733e-06
9.07941e-06
8.46195e-06
7.66158e-06
7.0214e-06
6.10188e-06
5.64697e-06
4.56406e-06
4.52964e-06
3.05653e-06
3.80978e-06
1.47482e-06
3.61923e-06
-3.48693e-07
4.05207e-06
-2.5379e-06
5.09226e-06
-0.0106635
-0.00923423
-0.0079479
-0.00679806
-0.0057773
-0.0048775
-0.00408999
-0.00340573
-0.00281555
-0.00231025
-0.00188085
-0.00151869
-0.00121555
-0.000963748
-0.000756215
-0.000586524
-0.000448902
-0.000338232
-0.000250026
-0.000180393
-0.000125988
-8.39716e-05
-5.19476e-05
-2.79191e-05
-1.02294e-05
2.47963e-06
1.13148e-05
1.71747e-05
2.07746e-05
2.26868e-05
2.33578e-05
2.3144e-05
2.23068e-05
2.10732e-05
1.95705e-05
1.7966e-05
1.6266e-05
1.46595e-05
1.29875e-05
1.15952e-05
1.00045e-05
8.98917e-06
7.38022e-06
6.94963e-06
5.03469e-06
5.5591e-06
2.77571e-06
4.92718e-06
3.21933e-07
5.19282e-06
-2.64981e-06
6.52426e-06
-0.0104252
-0.00899925
-0.0077181
-0.0065751
-0.00556258
-0.00467216
-0.00389491
-0.00322156
-0.0026427
-0.00214894
-0.0017311
-0.00138036
-0.00108837
-0.000847331
-0.000650088
-0.000490147
-0.000361693
-0.000259581
-0.000179314
-0.000117002
-6.93154e-05
-3.34336e-05
-6.98885e-06
1.19844e-05
2.51099e-05
3.37098e-05
3.88568e-05
4.14152e-05
4.20669e-05
4.13526e-05
3.96886e-05
3.74035e-05
3.47323e-05
3.18788e-05
2.89469e-05
2.60859e-05
2.32799e-05
2.07075e-05
1.81844e-05
1.6058e-05
1.3812e-05
1.22498e-05
1.01272e-05
9.31055e-06
6.96361e-06
7.26635e-06
4.04282e-06
6.20562e-06
9.71718e-07
6.31181e-06
-2.76805e-06
7.93102e-06
-0.010187
-0.00876463
-0.00748898
-0.00635309
-0.00534904
-0.0044682
-0.00370137
-0.00303905
-0.00247159
-0.00198942
-0.00158316
-0.00124384
-0.000962964
-0.000732641
-0.000545625
-0.00039536
-0.00027599
-0.000182346
-0.000109924
-5.4837e-05
-1.37715e-05
1.60698e-05
3.70269e-05
5.10326e-05
5.96769e-05
6.42454e-05
6.57769e-05
6.5101e-05
6.2866e-05
5.95813e-05
5.56334e-05
5.13232e-05
4.68595e-05
4.24232e-05
3.80952e-05
3.40074e-05
3.01217e-05
2.66065e-05
2.32527e-05
2.04099e-05
1.75246e-05
1.54291e-05
1.28053e-05
1.16125e-05
8.84365e-06
8.93145e-06
5.27668e-06
7.45411e-06
1.60161e-06
7.40796e-06
-2.89091e-06
9.31083e-06
-0.0099489
-0.00853053
-0.00726069
-0.00613219
-0.00513684
-0.00426574
-0.00350947
-0.00285828
-0.00230231
-0.00183176
-0.00143709
-0.00110917
-0.000839382
-0.000619721
-0.000442863
-0.000302194
-0.000191818
-0.000106547
-4.187e-05
6.09095e-06
4.0634e-05
6.45318e-05
8.00947e-05
8.92221e-05
9.34696e-05
9.40852e-05
9.20746e-05
8.82319e-05
8.31722e-05
7.73737e-05
7.11931e-05
6.49039e-05
5.86893e-05
5.27075e-05
4.70166e-05
4.17313e-05
3.6792e-05
3.2357e-05
2.8193e-05
2.46517e-05
2.1143e-05
1.85274e-05
1.54151e-05
1.38558e-05
1.06752e-05
1.05544e-05
6.47786e-06
8.67231e-06
2.21254e-06
8.48033e-06
-3.01678e-06
1.06621e-05
-0.00971116
-0.00829712
-0.00703339
-0.00591253
-0.00492609
-0.00406492
-0.00331934
-0.00267937
-0.00213493
-0.00167603
-0.00129296
-0.000976418
-0.00071767
-0.00050861
-0.000341834
-0.000210673
-0.000109197
-3.21993e-05
2.48341e-05
6.57724e-05
9.38947e-05
0.000111948
0.000122212
0.000126551
0.000126488
0.00012323
0.000117751
0.000110809
0.000102987
9.47314e-05
8.63695e-05
7.81475e-05
7.02233e-05
6.27331e-05
5.57124e-05
4.9259e-05
4.32922e-05
3.79603e-05
3.30064e-05
2.8784e-05
2.46678e-05
2.15454e-05
1.7957e-05
1.60408e-05
1.24589e-05
1.21354e-05
7.64697e-06
9.85998e-06
2.80544e-06
9.52811e-06
-3.14416e-06
1.19835e-05
-0.00947391
-0.00806455
-0.00680722
-0.00569424
-0.00471691
-0.00386582
-0.00313106
-0.0025024
-0.00196954
-0.00152231
-0.00115082
-0.000845627
-0.000597868
-0.000399339
-0.000242563
-0.000120819
-2.81431e-05
4.0685e-05
9.01808e-05
0.000124202
0.000146008
0.000158317
0.000163379
0.000163022
0.000158733
0.000151683
0.00014281
0.000132837
0.000122315
0.000111658
0.000101166
9.10569e-05
8.14645e-05
7.25025e-05
6.41849e-05
5.65925e-05
4.9624e-05
4.34178e-05
3.76943e-05
3.28082e-05