/*--------------------------------*- C++ -*----------------------------------*\
  =========                 |
  \\      /  F ield         | OpenFOAM: The Open Source CFD Toolbox
   \\    /   O peration     | Website:  https://openfoam.org
    \\  /    A nd           | Version:  7
     \\/     M anipulation  |
\*---------------------------------------------------------------------------*/
FoamFile
{
    version     2.0;
    format      ascii;
    class       surfaceScalarField;
    location    "10";
    object      phi;
}
// * * * * * * * * * * * * * * * * * * * * * * * * * * * * * * * * * * * * * //

dimensions      [0 3 -1 0 0 0 0];

internalField   nonuniform List<scalar> 
1256
(
0.000618127
-0.000232757
-9.16206e-11
0.00091984
-0.000301713
6.51742e-11
0.00129087
-0.000371028
-0.000453142
0.00174401
0.000639711
-0.000471544
0.000948749
-0.000610751
0.00132868
-0.000750963
-0.000916517
0.00179206
0.000682533
-0.000722264
0.00100604
-0.000934258
0.00140355
-0.00114848
-0.00140002
0.00188705
0.000745908
-0.000990583
0.00109068
-0.00127903
0.00151398
-0.00157178
-0.00191286
0.00202683
0.000828824
-0.00128181
0.00120114
-0.00165135
0.00165777
-0.0020284
-0.00246328
0.00220819
0.00092996
-0.00160079
0.00133544
-0.00205682
0.001832
-0.00252497
-0.00305826
0.00242698
0.0010477
-0.0019518
0.00149112
-0.00250025
0.00203315
-0.003067
-0.00370321
0.0026781
0.00118017
0.00166538
-0.00298545
0.00225708
-0.0036587
-0.00440182
0.00295568
0.00185504
-0.00351524
0.00249915
-0.0043028
-0.00515581
0.00325315
0.00205666
-0.00409126
0.00275433
-0.00500048
-0.00596488
0.0035634
0.00226657
-0.00471397
0.0030173
-0.00575121
-0.00682659
0.00387901
0.00248097
-0.00538266
0.00328256
-0.0065528
-0.00773645
0.00419242
0.00269599
-0.00609542
0.0035446
-0.0074014
-0.00868803
0.00449618
0.00290777
-0.00684922
0.00379803
-0.00829166
-0.0096732
0.00478319
0.00311254
0.00403772
-0.00921683
-0.0106824
0.00504695
0.00425894
-0.0101691
-0.0117054
0.00528193
0.0044574
-0.0111396
-0.0127319
0.0054839
0.00462929
-0.0121187
-0.0137527
0.0056501
0.00477172
-0.0147631
0.00578205
-0.0157649
0.0058875
0.00616191
0.000618127
0.00186923
-0.000125218
0.00198716
-0.000117929
0.00210113
-0.000113977
0.00221246
-0.000111331
0.0023222
-0.000109741
0.00243116
-0.000108962
0.00253988
-0.000108724
0.00264873
-0.000108849
0.00275794
-0.000109206
0.00286763
-0.000109697
0.00297787
-0.000110245
0.00308867
-0.000110799
0.00319999
-0.000111328
0.00331181
-0.000111816
0.00342407
-0.000112264
0.00353675
-0.000112682
0.00364984
-0.000113095
0.00376337
-0.000113532
0.00387739
-0.00011403
0.00399202
-0.00011463
0.00410739
-0.000115373
0.00422369
-0.0001163
-0.000117448
0.00191459
-0.000247749
0.00203023
-0.000233564
0.0021422
-0.00022595
0.00225171
-0.000220838
0.00235976
-0.000217792
0.00246714
-0.000216343
0.00257437
-0.000215953
0.00268179
-0.000216273
0.00278963
-0.000217045
0.002898
-0.000218071
0.00300696
-0.000219205
0.00311651
-0.000220344
0.00322661
-0.000221426
0.00333721
-0.000222424
0.00344829
-0.000223338
0.0035598
-0.000224193
0.00367174
-0.000225035
0.00378413
-0.000225926
0.00389704
-0.000226938
0.00401056
-0.000228151
0.00412484
-0.00022965
0.00424006
-0.000231516
-0.000233823
0.00200425
-0.00036495
0.00211534
-0.000344648
0.00222333
-0.000333945
0.00232922
-0.00032673
0.00243393
-0.0003225
0.00253818
-0.000320596
0.00264246
-0.000320228
0.00274707
-0.000320882
0.00285221
-0.000322182
0.00295797
-0.000323835
0.00306439
-0.000325626
0.00317146
-0.00032741
0.00327913
-0.000329096
0.00338735
-0.000330646
0.00349608
-0.000332066
0.00360528
-0.000333393
0.00371494
-0.000334699
0.00382509
-0.000336075
0.00393578
-0.000337631
0.00404712
-0.000339488
0.00415924
-0.00034177
0.00427232
-0.000344598
-0.000348084
0.00213615
-0.000474274
0.00224049
-0.00044899
0.0023426
-0.000436049
0.00244314
-0.000427277
0.00254292
-0.000422273
0.00264256
-0.00042024
0.00274248
-0.000420152
0.00284295
-0.000421348
0.00294411
-0.000423341
0.00304603
-0.000425753
0.00314871
-0.000428309
0.00325212
-0.000430823
0.00335621
-0.000433186
0.00346092
-0.000435354
0.00356619
-0.000437336
0.00367199
-0.00043919
0.0037783
-0.00044101
0.00388514
-0.000442921
0.00399258
-0.000445068
0.0041007
-0.000447611
0.00420965
-0.000450715
0.00431959
-0.000454542
-0.000459238
0.00230723
-0.000573315
0.00240275
-0.00054451
0.00249715
-0.000530443
0.00259071
-0.000520844
0.00268406
-0.000515617
0.00277771
-0.00051389
0.00287198
-0.000514425
0.00296707
-0.000516433
0.00306306
-0.000519334
0.00315998
-0.000522675
0.0032578
-0.000526132
0.00335647
-0.000529488
0.0034559
-0.000532623
0.00355604
-0.00053549
0.00365682
-0.000538111
0.00375819
-0.000540563
0.00386015
-0.000542966
0.0039627
-0.000545477
0.00406591
-0.000548276
0.00416986
-0.000551564
0.00427469
-0.000555544
0.00438057
-0.000560417
-0.000566366
0.00251352
-0.000659861
0.0025983
-0.000629283
0.0026833
-0.000615444
0.00276838
-0.000605931
0.00285394
-0.000601172
0.00294034
-0.000600294
0.00302779
-0.000601872
0.00311638
-0.00060502
0.00320613
-0.000609085
0.00329701
-0.000613556
0.00338895
-0.000618074
0.00348187
-0.000622406
0.00357567
-0.000626426
0.00367028
-0.000630094
0.00376562
-0.000633449
0.00386164
-0.000636588
0.00395833
-0.00063966
0.00405571
-0.000642852
0.00415382
-0.000646383
0.00425274
-0.000650487
0.00435261
-0.00065541
0.00445358
-0.000661389
-0.000668642
0.0027502
-0.000731963
0.00282252
-0.000701598
0.00289662
-0.000689547
0.0029719
-0.000681209
0.00304848
-0.000677747
0.00312654
-0.000678358
0.00320614
-0.00068147
0.00328725
-0.000686134
0.00336982
-0.000691651
0.00345374
-0.000697478
0.0035389
-0.000703239
0.00362519
-0.000708697
0.0037125
-0.000713733
0.00380073
-0.000718322
0.0038898
-0.000722522
0.00397967
-0.000726455
0.0040703
-0.000730298
0.00416172
-0.000734271
0.00425397
-0.000738626
0.00434712
-0.000743636
0.00444129
-0.000749581
0.00453664
-0.000756738
-0.000765356
0.00301171
-0.000787986
0.00307012
-0.000760016
0.00313206
-0.000751483
0.00319642
-0.000745564
0.00326302
-0.000744353
0.00333184
-0.000747178
0.00340274
-0.000752368
0.00347557
-0.000758958
0.00355016
-0.000766241
0.00362634
-0.000773666
0.00370397
-0.000780864
0.00378288
-0.000787613
0.00386296
-0.000793812
0.0039441
-0.000799457
0.00402621
-0.000804632
0.00410924
-0.000809483
0.00419316
-0.000814219
0.00427797
-0.000819088
0.00436373
-0.000824378
0.00445048
-0.000830394
0.00453836
-0.000837456
0.00462749
-0.000845872
-0.000855928
0.00329185
-0.000826686
0.00333527
-0.000803435
0.00338405
-0.000800267
0.00343663
-0.000798144
0.00349251
-0.000800237
0.0035514
-0.000806064
0.00361294
-0.000813911
0.00367684
-0.000822854
0.00374282
-0.000832222
0.00381065
-0.000841495
0.00388012
-0.000850336
0.00395106
-0.000858554
0.00402333
-0.000866076
0.0040968
-0.000872931
0.00417139
-0.000879226
0.00424705
-0.000885139
0.00432373
-0.000890904
0.00440145
-0.000896803
0.00448022
-0.000903152
0.00456012
-0.000910292
0.00464124
-0.000918574
0.00472371
-0.000928343
-0.000939915
0.00358399
-0.000847278
0.00361171
-0.000831152
0.0036467
-0.000835256
0.00368695
-0.000838395
0.00373161
-0.000844906
0.0037801
-0.000854546
0.00383182
-0.000865636
0.00388633
-0.000877358
0.00394323
-0.000889131
0.00400224
-0.000900503
0.0040631
-0.000911196
0.00412562
-0.000921071
0.00418964
-0.000930094
0.00425503
-0.000938326
0.00432171
-0.000945907
0.00438962
-0.000953043
0.00445871
-0.000959994
0.00452897
-0.00096707
0.00460044
-0.000974618
0.00467316
-0.00098301
0.00474721
-0.000992628
0.00482272
-0.00100385
-0.00101703
0.00388123
-0.000849494
0.003893
-0.000842925
0.00391394
-0.000856196
0.00394164
-0.000866091
0.00397487
-0.000878141
0.00401271
-0.000892388
0.00405435
-0.000907277
0.00409918
-0.000922181
0.00414671
-0.000936662
0.00419659
-0.000950381
0.00424853
-0.000963144
0.00430234
-0.000974875
0.00435784
-0.000985591
0.0044149
-0.00099539
0.00447343
-0.00100444
0.00453337
-0.00101298
0.00459466
-0.00102129
0.00465729
-0.0010297
0.00472128
-0.0010386
0.00478666
-0.00104839
0.0048535
-0.00105947
0.0049219
-0.00107226
-0.00108713
0.00417657
-0.000833641
0.00417267
-0.000839029
0.00417974
-0.000863268
0.00419501
-0.000881356
0.00421686
-0.000899994
0.00424404
-0.000919561
0.00427551
-0.000938745
0.00431052
-0.000957193
0.00434852
-0.000974668
0.00438912
-0.000990977
0.00443201
-0.00100604
0.00447698
-0.00101984
0.00452384
-0.00103246
0.00457249
-0.00104403
0.0046228
-0.00105476
0.00467472
-0.00106489
0.00472818
-0.00107475
0.00478316
-0.00108469
0.00483966
-0.0010951
0.0048977
-0.00110643
0.00495733
-0.0011191
0.00501864
-0.00113357
-0.00115023
0.0044632
-0.000800653
0.00444447
-0.000820309
0.00443831
-0.000857105
0.00444161
-0.000884651
0.00445237
-0.000910756
0.00446902
-0.000936217
0.00449038
-0.0009601
0.00451559
-0.000982403
0.00454406
-0.00100314
0.00457537
-0.00102229
0.00460921
-0.00103988
0.00464537
-0.001056
0.00468367
-0.00107076
0.00472397
-0.00108433
0.00476617
-0.00109696
0.00481018
-0.0011089
0.00485594
-0.00112051
0.00490341
-0.00113216
0.00495257
-0.00114426
0.00500343
-0.00115728
0.00505602
-0.00117169
0.0051104
-0.00118795
-0.00120651
0.00473469
-0.000752152
0.0047026
-0.000788217
0.00468428
-0.000838784
0.00467635
-0.000876722
0.00467648
-0.000910893
0.0046829
-0.000942627
0.0046943
-0.000971505
0.00470983
-0.000997933
0.00472888
-0.00102219
0.00475104
-0.00104444
0.004776
-0.00106484
0.00480354
-0.00108353
0.00483348
-0.0011007
0.00486568
-0.00111653
0.00490002
-0.0011313
0.00493641
-0.00114529
0.00497476
-0.00115886
0.00501502
-0.00117241
0.00505715
-0.00118639
0.00510113
-0.00120127
0.00514699
-0.00121755
0.00519475
-0.00123572
0.00524451
-0.00125626
-0.00127958
0.00498534
-0.000690542
0.00494197
-0.000744842
0.00491294
-0.000809755
0.0048947
-0.000858485
0.00488475
-0.000900941
0.00488123
-0.000939108
0.00488291
-0.000973186
0.00488897
-0.00100399
0.00489883
-0.00103206
0.00491211
-0.00105772
0.00492849
-0.00108122
0.00494775
-0.0011028
0.00496972
-0.00112266
0.00499422
-0.00114103
0.00502112
-0.0011582
0.00505031
-0.00117448
0.0050817
-0.00119024
0.00511519
-0.00120591
0.00515074
-0.00122194
0.0051883
-0.00123883
0.00522787
-0.00125712
0.00526947
-0.00127732
0.00531315
-0.00129993
-0.00132542
0.0052106
-0.000619209
0.00515858
-0.00069282
0.00512043
-0.000771603
0.00509275
-0.000830804
0.00507315
-0.000881347
0.00505998
-0.000925935
0.00505218
-0.00096539
0.00504905
-0.00100086
0.00505007
-0.00103308
0.00505487
-0.00106251
0.00506313
-0.00108949
0.00507462
-0.00111429
0.00508912
-0.00113717
0.00510647
-0.00115838
0.00512651
-0.00117823
0.00514908
-0.00119706
0.00517408
-0.00121524
0.0052014
-0.00123322
0.00523094
-0.00125149
0.00526267
-0.00127056
0.00529653
-0.00129098
0.00533253
-0.00131332
0.00537069
-0.0013381
-0.0013658
0.00540742
-0.000542725
0.00534958
-0.000634979
0.00530362
-0.000725639
0.00526702
-0.000794208
0.00523801
-0.000852338
0.00521538
-0.000903304
0.00519838
-0.000948389
0.00518644
-0.000988919
0.00517909
-0.00102573
0.00517594
-0.00105937
0.00517669
-0.00109023
0.00518105
-0.00111865
0.00518878
-0.0011449
0.00519968
-0.00116928
0.00521355
-0.0011921
0.00523022
-0.00121373
0.00524954
-0.00123456
0.00527138
-0.00125507
0.00529563
-0.00127574
0.00532221
-0.00129714
0.00535105
-0.00131983
0.00538213
-0.0013444
0.00541545
-0.00137141
-0.00140139
0.00557372
-0.000466336
0.00551314
-0.000574401
0.00546014
-0.000672643
0.00541464
-0.000748707
0.00537616
-0.000813856
0.00534418
-0.000871325
0.00531828
-0.000922493
0.005298
-0.000968637
0.00528287
-0.0010106
0.00527248
-0.00104897
0.00526646
-0.00108421
0.00526447
-0.00111666
0.00526623
-0.00114666
0.00527149
-0.00117454
0.00528001
-0.00120063
0.0052916
-0.00122531
0.00530606
-0.00124903
0.00532325
-0.00127225
0.00534301
-0.0012955
0.00536523
-0.00131936
0.00538984
-0.00134443
0.00541677
-0.00137133
0.00544601
-0.00140065
-0.00143295
0.00571099
-0.000395273
0.00565091
-0.000514325
0.00559001
-0.000611746
0.00553463
-0.000693318
0.00548615
-0.000765385
0.00544476
-0.000829931
0.00541023
-0.000887962
0.00538209
-0.0009405
0.00535982
-0.000988327
0.0053429
-0.00103206
0.00533089
-0.00107219
0.00532338
-0.00110915
0.00532001
-0.0011433
0.00532049
-0.00117502
0.00532454
-0.00120467
0.0053319
-0.00123268
0.00534237
-0.0012595
0.00535575
-0.00128562
0.00537187
-0.00131162
0.00539058
-0.00133808
0.00541178
-0.00136563
0.00543539
-0.00139493
0.00546135
-0.00142661
-0.00146126
0.00584007
-0.000347846
0.0057663
-0.000440552
0.00569159
-0.000537039
0.0056242
-0.000625928
0.00556531
-0.000706487
0.00551485
-0.000779479
0.00547238
-0.000845486
0.00543722
-0.000905341
0.00540869
-0.000959803
0.00538618
-0.00100954
0.00536911
-0.00105512
0.005357
-0.00109704
0.00534944
-0.00113574
0.00534606
-0.00117163
0.00534653
-0.00120514
0.00535056
-0.00123671
0.00535791
-0.00126684
0.00536834
-0.00129606
0.00538166
-0.00132494
0.0053977
-0.00135412
0.00541632
-0.00138425
0.00543741
-0.00141603
0.00546091
-0.00145011
-0.00148714
0.00438239
-0.000242406
-0.00448783
0.0043209
-0.000379066
0.00426948
-0.000485622
0.0042229
-0.00057934
0.00417987
-0.000663458
0.00414
-0.000739616
0.00410312
-0.000808604
0.00406904
-0.000871257
0.00403757
-0.000928335
0.00400854
-0.00098051
0.00398178
-0.00102836
0.00395713
-0.0010724
0.00393448
-0.00111308
0.00391369
-0.00115084
0.00389467
-0.00118612
0.00387734
-0.00121939
0.00386163
-0.00125113
0.00384747
-0.00128189
0.0038348
-0.00131227
0.00382358
-0.0013429
0.00381377
-0.00137444
0.00380532
-0.00140758
0.0037982
-0.00144299
-0.00148132
0.00470277
-0.000154695
-0.00479048
0.00463281
-0.000309113
0.00457364
-0.000426452
0.00452112
-0.000526818
0.0044732
-0.00061554
0.00442901
-0.000695424
0.00438815
-0.000767737
0.00435032
-0.00083343
0.0043153
-0.000893315
0.00428288
-0.000948088
0.00425287
-0.000998353
0.0042251
-0.00104464
0.00419944
-0.00108742
0.00417574
-0.00112715
0.00415392
-0.0011643
0.00413387
-0.00119933
0.00411551
-0.00123277
0.00409877
-0.00126515
0.00408359
-0.00129709
0.00406991
-0.00132922
0.00405769
-0.00136221
0.00404687
-0.00139676
0.00403743
-0.00143355
-0.00147321
0.00502916
-8.04606e-05
-0.00510339
0.00495818
-0.000238136
0.00489443
-0.000362694
0.00483703
-0.000469425
0.00478463
-0.000563134
0.00473627
-0.000647067
0.00469147
-0.000722938
0.00464989
-0.000791851
0.00461127
-0.00085469
0.00457537
-0.000912191
0.004542
-0.000964984
0.00451098
-0.00101362
0.00448217
-0.0010586
0.00445542
-0.0011004
0.00443062
-0.0011395
0.00440767
-0.00117638
0.00438648
-0.00121158
0.00436698
-0.00124565
0.00434909
-0.00127921
0.00433276
-0.00131289
0.00431793
-0.00134738
0.00430454
-0.00138337
0.00429254
-0.00142155
-0.00146256
0.00536467
-1.69542e-05
-0.00542817
0.00529628
-0.000169749
0.00523081
-0.000297228
0.0051701
-0.000408711
0.00511399
-0.000507022
0.00506189
-0.000594967
0.00501339
-0.000674441
0.00496818
-0.00074664
0.004926
-0.000812507
0.00488662
-0.000872813
0.00484984
-0.000928212
0.0048155
-0.000979277
0.00478343
-0.00102653
0.0047535
-0.00107047
0.00472559
-0.00111159
0.0046996
-0.00115039
0.00467542
-0.00118741
0.00465298
-0.00122322
0.00463221
-0.00125843
0.00461303
-0.00129371
0.00459538
-0.00132973
0.0045792
0.00456444
0.00571114
0.00564693
0.00558206
0.00551972
0.00546097
0.0054058
0.00535403
0.00530546
0.00525989
0.00521712
0.00517698
0.0051393
0.00510393
0.00507075
0.00503963
0.00501046
0.00498316
0.00495764
0.00493381
0.0049116
0.00450272
0.00611114
0.0061768
0.00479281
0.00610569
0.00617914
0.00509457
0.00617031
)
;

boundaryField
{
    inlet
    {
        type            calculated;
        value           nonuniform 0();
    }
    outlet
    {
        type            calculated;
        value           nonuniform 0();
    }
    cylinder
    {
        type            calculated;
        value           nonuniform 0();
    }
    top
    {
        type            symmetryPlane;
        value           nonuniform 0();
    }
    bottom
    {
        type            symmetryPlane;
        value           nonuniform 0();
    }
    defaultFaces
    {
        type            empty;
        value           nonuniform 0();
    }
    procBoundary10to5
    {
        type            processor;
        value           uniform -0.00038537;
    }
    procBoundary10to6
    {
        type            processor;
        value           nonuniform List<scalar> 
28
(
3.26413e-10
7.30776e-10
-0.000232758
-0.000301713
0.00091984
5.22184e-10
6.46339e-10
7.88836e-10
9.47081e-10
1.12072e-09
1.30854e-09
1.50955e-09
1.72219e-09
1.94485e-09
2.17486e-09
2.40921e-09
2.64345e-09
2.87223e-09
3.0885e-09
3.2838e-09
3.44884e-09
3.57315e-09
3.64691e-09
3.66093e-09
3.6089e-09
3.48599e-09
3.29216e-09
3.01589e-09
)
;
    }
    procBoundary10to9
    {
        type            processor;
        value           nonuniform List<scalar> 
29
(
-0.00038537
-0.000400925
-0.000431813
-0.000477589
-0.000537597
-0.00061098
-0.00069669
-0.000793512
-0.00233846
-0.00132525
-0.00148064
-0.00164385
-0.00181228
-0.00198324
-0.00215397
-0.00232173
-0.00764004
-0.00330671
-0.0034869
-0.00365014
-0.0037939
-0.0130965
-0.0048857
-0.00497437
-0.0169524
-0.00610261
-0.00451125
-0.00478737
-0.00507563
)
;
    }
    procBoundary10to11
    {
        type            processor;
        value           nonuniform List<scalar> 
25
(
0.00434113
0.00435643
0.00438658
0.00443075
0.0044877
0.00455585
0.00463335
0.00471806
0.0048077
0.00489983
0.004992
0.00508175
0.00516667
0.00122774
0.00529635
0.00535898
0.00541108
0.00545104
0.00547756
0.00548967
0.00548679
0.00379238
0.00402931
0.00428189
0.00455105
)
;
    }
    procBoundary10to14
    {
        type            processor;
        value           nonuniform List<scalar> 
29
(
-0.00136719
-0.00140679
-0.00144917
3.81872e-05
-0.00576628
-0.000105546
-0.000232354
-0.000346373
-0.000448273
-0.000539796
-0.000622673
-0.00069807
-0.000766932
-0.000830043
-0.000888069
-0.000941598
-0.000991167
-0.00103729
-0.00108047
-0.00112122
-0.00116011
-0.00119769
-0.0012346
-0.0012715
0.00489095
-0.00130908
0.00608675
-0.00540717
0.00614931
)
;
    }
}


// ************************************************************************* //
