/*--------------------------------*- C++ -*----------------------------------*\
  =========                 |
  \\      /  F ield         | OpenFOAM: The Open Source CFD Toolbox
   \\    /   O peration     | Website:  https://openfoam.org
    \\  /    A nd           | Version:  7
     \\/     M anipulation  |
\*---------------------------------------------------------------------------*/
FoamFile
{
    version     2.0;
    format      ascii;
    class       volVectorField;
    location    "5";
    object      U;
}
// * * * * * * * * * * * * * * * * * * * * * * * * * * * * * * * * * * * * * //

dimensions      [0 1 -1 0 0 0 0];

internalField   nonuniform List<vector> 
6050
(
(-0.0218415 0.00786333 -4.30109e-20)
(-0.0851639 0.0124846 -5.32643e-20)
(-0.167294 0.01385 6.82164e-21)
(-0.241801 0.0141632 -1.8149e-20)
(-0.313344 0.0140788 9.29522e-20)
(-0.378913 0.0136319 3.08831e-20)
(-0.438108 0.012667 -4.49317e-20)
(-0.0221198 0.0232846 2.0341e-21)
(-0.084094 0.0371012 -3.38532e-20)
(-0.163967 0.0412242 -7.23965e-20)
(-0.235917 0.0421601 6.07168e-20)
(-0.304338 0.0418819 4.07724e-20)
(-0.366152 0.0405116 6.81868e-21)
(-0.420871 0.0375978 1.3067e-19)
(-0.0226524 0.0378142 -1.2457e-20)
(-0.082015 0.0606824 -4.88714e-20)
(-0.157481 0.0676394 7.05412e-20)
(-0.224441 0.0691932 5.69319e-20)
(-0.2868 0.068653 -2.02111e-19)
(-0.341371 0.066278 2.80982e-20)
(-0.387528 0.0613644 -2.19445e-19)
(-0.0233943 0.0509199 6.2194e-20)
(-0.0790446 0.0825804 2.57054e-19)
(-0.148163 0.0924832 -8.60107e-20)
(-0.207937 0.0946517 -1.83068e-19)
(-0.261631 0.0937498 -1.1181e-19)
(-0.30596 0.0902525 1.62506e-19)
(-0.340162 0.0832754 2.12428e-19)
(-0.0242848 0.0621523 -1.71222e-19)
(-0.0753503 0.102205 -4.98342e-20)
(-0.136471 0.115176 1.54416e-19)
(-0.18719 0.117962 8.32742e-20)
(-0.230072 0.116583 4.32196e-19)
(-0.2618 0.11183 -4.22163e-19)
(-0.281538 0.102733 -2.49437e-19)
(-0.0252546 0.0711707 1.11337e-19)
(-0.0711384 0.119043 1.02146e-20)
(-0.122974 0.135186 -2.90166e-19)
(-0.163161 0.138597 -1.48879e-19)
(-0.193608 0.136628 -5.11136e-19)
(-0.211091 0.13049 -1.80212e-20)
(-0.214806 0.119239 -2.67022e-20)
(-0.203352 0.101835 -5.0807e-20)
(-0.0262337 0.0777618 -2.90057e-19)
(-0.0666411 0.132683 -5.24675e-19)
(-0.108312 0.152037 1.92956e-19)
(-0.136921 0.156082 -5.74206e-20)
(-0.153862 0.153424 4.61946e-19)
(-0.15618 0.145795 4.68674e-19)
(-0.143234 0.132394 -1.69038e-19)
(-0.114201 0.112263 2.44606e-19)
(-0.0271598 0.0818498 2.14162e-19)
(-0.0621017 0.142825 2.41382e-19)
(-0.0931606 0.165321 1.73023e-19)
(-0.109592 0.169995 6.36767e-19)
(-0.112501 0.166576 -1.46993e-19)
(-0.0994063 0.157386 2.35919e-19)
(-0.0699896 0.14189 3.23053e-19)
(-0.0240871 0.119234 -4.19655e-19)
(-0.0279862 0.0834972 -1.07621e-19)
(-0.0577576 0.1493 6.31958e-20)
(-0.0781906 0.174718 -5.24556e-19)
(-0.0822886 0.179975 -3.12004e-19)
(-0.0711468 0.175758 -2.60652e-19)
(-0.0429561 0.164943 -1.51573e-19)
(0.00207741 0.147439 -7.82585e-19)
(0.0634864 0.122508 1.46066e-19)
(-0.0286887 0.0828958 4.08462e-19)
(-0.0538239 0.152086 4.74509e-19)
(-0.0640216 0.180002 1.2713e-19)
(-0.0560371 0.185727 5.39163e-19)
(-0.0312746 0.180666 1.58348e-19)
(0.0112337 0.168223 3.66894e-19)
(0.0706836 0.148812 4.31493e-19)
(0.14602 0.12191 4.15211e-19)
(-0.0292698 0.0803484 -2.56729e-19)
(-0.0504772 0.151309 -4.31167e-19)
(-0.0511717 0.18107 7.67054e-19)
(-0.0317152 0.187049 -8.08334e-19)
(0.00592557 0.181073 -5.99128e-19)
(0.0617165 0.167069 -2.74084e-19)
(0.134345 0.145898 -1.23823e-19)
(0.222461 0.117323 -7.05225e-19)
(-0.0297601 0.0762415 2.4142e-19)
(-0.047837 0.14724 1.9108e-19)
(-0.0400054 0.177972 -8.88222e-19)
(-0.00993341 0.183869 -3.04815e-19)
(0.0396807 0.176895 3.39996e-19)
(0.107796 0.161415 -1.8962e-19)
(0.192847 0.138707 5.1949e-19)
(0.29374 0.108877 5.24698e-19)
(0.410014 0.0718253 -7.08494e-19)
(-0.0302166 0.0710112 -7.74066e-19)
(-0.0459471 0.140281 -7.52141e-19)
(-0.0306738 0.170935 5.67022e-19)
(0.00908688 0.176291 3.68361e-19)
(0.0698792 0.168217 2.01987e-19)
(0.149877 0.151399 -1.74415e-19)
(0.247743 0.12754 -3.23625e-19)
(0.363197 0.0970986 1.72091e-19)
(0.496595 0.0601192 2.78837e-20)
(-0.0307158 0.0651062 1.2001e-19)
(-0.0447612 0.130951 7.89622e-19)
(-0.0230511 0.160366 -2.49859e-19)
(0.0256501 0.164637 -3.26053e-20)
(0.0973219 0.155378 -2.60629e-19)
(0.189858 0.137466 -1.02944e-19)
(0.30262 0.113155 9.6954e-20)
(0.436235 0.0831474 3.20196e-19)
(0.590211 0.0477554 9.64974e-20)
(-0.0313395 0.0589508 6.75482e-19)
(-0.0441263 0.119839 -1.9522e-19)
(-0.0166813 0.14685 -5.0219e-19)
(0.0407158 0.149489 6.78746e-19)
(0.123913 0.139061 6.19091e-19)
(0.231177 0.120659 4.5977e-19)
(0.362751 0.0969685 4.41075e-19)
(0.518664 0.0689764 -1.64937e-19)
(0.694155 0.0370383 2.99404e-19)
(-0.0321576 0.0529117 -2.12722e-19)
(-0.0437668 0.107564 1.17272e-19)
(-0.0107427 0.131122 2.92631e-19)
(0.0559751 0.131694 -8.23547e-19)
(0.152764 0.120366 -1.44511e-19)
(0.278609 0.102483 -7.3722e-19)
(0.433671 0.0809906 3.11219e-19)
(0.614009 0.0569388 -7.73927e-19)
(0.806632 0.030053 3.03463e-19)
(0.989803 -0.000275855 -7.41257e-19)
(-0.0332077 0.0472708 6.55475e-21)
(-0.0432739 0.0947254 5.17968e-19)
(-0.00404825 0.114019 -1.35746e-19)
(0.0738019 0.112328 -4.6627e-20)
(0.187807 0.100738 1.59818e-19)
(0.33722 0.0848282 5.70048e-19)
(0.519077 0.0675423 -2.89788e-19)
(0.72113 0.0490512 -2.64043e-19)
(0.920766 0.0278193 1.72748e-19)
(1.09276 0.00257736 4.09484e-19)
(-0.0344763 0.0422092 -5.63832e-20)
(-0.0421069 0.0818504 -5.1758e-20)
(0.00490082 0.0964056 5.83312e-19)
(0.0970501 0.0926233 3.02968e-19)
(0.233168 0.0819113 -2.80434e-19)
(0.410639 0.069897 8.05395e-20)
(0.618704 0.0585784 9.50185e-20)
(0.833944 0.0462388 8.6518e-19)
(1.02762 0.0300313 -7.47508e-19)
(1.17812 0.00868847 -1.05051e-18)
(1.27776 -0.0165643 -1.01664e-18)
(-0.0358851 0.0378008 4.85211e-20)
(-0.0396129 0.0693585 -6.52878e-19)
(0.0178007 0.0791051 1.71239e-19)
(0.128683 0.0738731 -5.83563e-19)
(0.292179 0.0657065 7.54742e-19)
(0.499572 0.0595471 -5.25889e-19)
(0.727789 0.0550253 2.26714e-20)
(0.943829 0.0481352 -5.2422e-20)
(1.11996 0.0355335 -5.6602e-19)
(1.24359 0.0167649 1.41864e-18)
(1.31659 -0.00614096 5.96441e-19)
(-0.0372861 0.0340173 -3.45882e-19)
(-0.0350637 0.0575332 4.49415e-19)
(0.0363832 0.0628322 -3.95449e-19)
(0.171296 0.0573414 -4.35185e-19)
(0.366333 0.0537567 -8.23391e-19)
(0.601025 0.0547966 3.32587e-19)
(0.838659 0.0565853 -2.36535e-19)
(1.04306 0.0535563 -7.04169e-19)
(1.19431 0.0430339 6.22946e-19)
(1.29033 0.025787 -5.02859e-19)
(1.34021 0.00451824 6.908e-19)
(1.35689 -0.017797 7.63374e-19)
(-0.0384632 0.030743 1.79722e-18)
(-0.0277045 0.0465188 -4.56912e-19)
(0.0622405 0.0481785 4.02728e-19)
(0.226612 0.0442007 4.96464e-19)
(0.45456 0.0471742 7.75309e-19)
(0.708998 0.0555784 -4.20393e-19)
(0.943553 0.0621224 2.54645e-19)
(1.12699 0.061182 -3.4155e-19)
(1.25062 0.0515332 -6.37118e-19)
(1.32135 0.0351091 3.22907e-19)
(1.35254 0.0150203 -5.83523e-19)
(1.35771 -0.00585103 -3.61905e-19)
(-0.0391705 0.027827 -1.26156e-18)
(-0.0167917 0.0363424 5.4656e-19)
(0.0967009 0.035625 -5.73472e-20)
(0.295067 0.0354095 -2.8344e-19)
(0.55319 0.0462345 -8.62357e-19)
(0.816365 0.0609218 6.22695e-19)
(1.03681 0.0702771 -5.76539e-19)
(1.1942 0.0699719 2.64619e-19)
(1.2909 0.0604068 3.28829e-19)
(1.34009 0.0443924 -1.34759e-18)
(1.35696 0.0252031 2.52018e-19)
(1.35419 0.00552074 4.03603e-20)
(1.34057 -0.0128337 5.11737e-19)
(-0.0391507 0.025093 -9.14577e-20)
(-0.00161727 0.0269245 -8.21886e-19)
(0.140731 0.0255965 4.54411e-19)
(0.375577 0.0315648 3.02691e-19)
(0.65692 0.0503894 -2.48692e-19)
(0.917111 0.0695314 -7.87258e-19)
(1.11577 0.0799488 5.42143e-19)
(1.24567 0.079265 -1.3644e-19)
(1.31809 0.0693095 1.07924e-19)
(1.34983 0.0534687 8.35722e-19)
(1.35615 0.0350009 -4.33322e-19)
(1.34811 0.0163231 -3.85893e-19)
(1.33264 -0.0010375 -3.46605e-19)
(-0.0381312 0.0223538 -3.87997e-20)
(0.0184769 0.0181689 4.81388e-19)
(0.19479 0.0185783 -8.50878e-19)
(0.465493 0.0327869 1.70456e-19)
(0.760091 0.0586103 5.9729e-19)
(1.00724 0.0802574 1.16136e-19)
(1.17999 0.0904009 1.82968e-19)
(1.28341 0.0886883 3.37635e-19)
(1.33505 0.0780838 -3.71491e-19)
(1.3532 0.0622971 -2.74299e-19)
(1.35201 0.0444374 5.0688e-19)
(1.34064 0.026623 9.08475e-19)
(1.32432 0.0101117 9.355e-20)
(1.30576 -0.00445354 -3.30713e-19)
(-0.0358362 0.0194428 9.42887e-20)
(0.0441085 0.0100552 9.04524e-19)
(0.258686 0.0151067 -2.77484e-19)
(0.561032 0.0386644 7.65841e-19)
(0.857973 0.0697772 -6.3396e-19)
(1.08485 0.0922444 7.57181e-19)
(1.23041 0.101171 -6.23084e-19)
(1.30981 0.098043 4.04607e-19)
(1.34434 0.0866747 -2.55915e-19)
(1.35222 0.0708909 3.01456e-20)
(1.34587 0.0535574 -3.00342e-19)
(1.33251 0.0364836 -5.07876e-19)
(1.31595 0.0206904 -2.39514e-19)
(1.29801 0.00669455 1.62041e-19)
(1.27964 -0.00523544 5.07894e-20)
(-0.0319887 0.0162368 -8.53242e-19)
(0.0758512 0.00273757 -8.15711e-19)
(0.331448 0.0156355 6.36578e-19)
(0.658027 0.0484238 -3.78869e-20)
(0.947361 0.0829505 9.02211e-19)
(1.14964 0.104919 -5.50119e-19)
(1.26872 0.111992 2.42442e-19)
(1.32718 0.107248 -3.13467e-19)
(1.34807 0.0950919 5.86791e-19)
(1.3484 0.0792941 -2.26127e-19)
(1.33859 0.0624159 2.17996e-19)
(1.32413 0.0459688 -1.49048e-20)
(1.30767 0.0307711 1.64538e-19)
(1.29041 0.0172363 -2.12332e-20)
(1.27298 0.00556356 2.28889e-19)
(1.25578 -0.00426832 4.73948e-20)
(-0.0263026 0.01267 1.2256e-18)
(0.114182 -0.00337799 -7.91273e-19)
(0.411297 0.0203509 2.02858e-19)
(0.752685 0.0612071 -8.02617e-19)
(1.02653 0.0974422 -5.67716e-19)
(1.20227 0.117912 6.25242e-20)
(1.29678 0.122722 1.12769e-19)
(1.33759 0.116289 -3.12233e-19)
(1.34786 0.103374 5.69775e-20)
(1.34278 0.0875553 4.38893e-19)
(1.33072 0.0710611 -3.1646e-19)
(1.31572 0.0551293 -1.81366e-19)
(1.29954 0.0404108 -9.62669e-20)
(1.28296 0.0272349 -8.25468e-20)
(1.26641 0.0157583 -9.97503e-20)
(1.25015 0.00597873 1.89081e-19)
(1.23442 -0.00195278 -8.78656e-20)
(-0.0184683 0.00874536 -2.91383e-19)
(0.159371 -0.00762533 7.34759e-19)
(0.495826 0.0290822 4.41365e-19)
(0.842073 0.0762702 -5.0222e-19)
(1.09489 0.112774 6.22817e-19)
(1.24392 0.130994 -3.67219e-21)
(1.31643 0.1333 5.61785e-19)
(1.34272 0.125191 3.66377e-19)
(1.34492 0.111568 3.2055e-19)
(1.33603 0.0957185 -3.0538e-19)
(1.32257 0.0795315 2.10232e-19)
(1.30737 0.0640058 2.17347e-19)
(1.29156 0.0496567 3.50749e-19)
(1.27564 0.0367477 -1.79502e-19)
(1.25987 0.0254006 -2.81374e-22)
(1.24447 0.0156354 -1.58213e-19)
(1.22961 0.00749552 8.02451e-21)
(1.21547 0.000437499 -6.06254e-20)
(-0.00814535 0.00454718 -2.65557e-19)
(0.211345 -0.00918138 -2.96882e-19)
(0.582335 0.041385 -1.47731e-20)
(0.924241 0.0930421 4.76137e-19)
(1.15262 0.128613 -4.65894e-19)
(1.27599 0.144027 -5.06981e-19)
(1.32934 0.143717 1.91794e-19)
(1.34395 0.133999 -2.27627e-19)
(1.34012 0.11972 -1.45523e-19)
(1.32862 0.103817 5.57282e-20)
(1.31432 0.0878542 -4.72473e-19)
(1.29911 0.0726279 4.26821e-19)
(1.28371 0.0585456 -3.96437e-20)
(1.26839 0.0458174 -8.80246e-20)
(1.25335 0.0345431 7.71054e-20)
(1.23873 0.0247392 -1.11362e-19)
(1.22468 0.0164078 -9.3176e-20)
(1.21131 0.00919622 -4.14232e-21)
(1.19869 0.00423206 -6.40849e-20)
(1.187 -0.00299097 1.15348e-19)
(0.00502989 0.000255848 3.05575e-19)
(0.26958 -0.00726394 5.38986e-19)
(0.668197 0.0567155 -7.32194e-19)
(0.99811 0.111105 -2.72259e-19)
(1.20037 0.144732 -1.23594e-19)
(1.29988 0.15694 7.09432e-19)
(1.33691 0.153994 -1.89987e-19)
(1.34231 0.142758 -1.15693e-19)
(1.33407 0.127867 -1.60721e-19)
(1.32081 0.111872 1.92631e-19)
(1.30603 0.0960462 7.13244e-20)
(1.29094 0.0810168 -8.04259e-20)
(1.27595 0.0671059 -2.08854e-19)
(1.2612 0.0544815 2.05152e-20)
(1.24682 0.0432228 -8.27864e-20)
(1.23291 0.0333436 1.44905e-19)
(1.21958 0.0248112 3.41693e-20)
(1.20695 0.017426 3.29029e-20)
(1.195 0.0119095 4.22713e-20)
(1.18398 0.0046803 -1.23659e-19)
(0.0214053 -0.00383592 -5.74549e-19)
(0.333086 -0.00133526 -3.38654e-20)
(0.751135 0.0745637 -1.11687e-19)
(1.06325 0.130152 3.21802e-19)
(1.239 0.16097 -1.10959e-19)
(1.3169 0.169703 -3.10859e-19)
(1.34031 0.164169 -4.34811e-19)
(1.33858 0.15151 3.04329e-19)
(1.32716 0.13603 -3.52825e-19)
(1.31275 0.119894 1.73459e-19)
(1.29773 0.104116 1.01118e-19)
(1.28283 0.089186 -5.01777e-20)
(1.26824 0.0753593 1.17924e-19)
(1.25402 0.0627679 1.27727e-19)
(1.24025 0.0514742 -2.6581e-19)
(1.227 0.0414809 1.90148e-19)
(1.21435 0.0327461 1.38601e-20)
(1.20237 0.0251623 2.95683e-20)
(1.19107 0.0191207 1.40094e-19)
(1.18064 0.0118944 3.31455e-20)
(0.0412576 -0.00732223 1.71043e-19)
(0.4005 0.00878953 -6.99274e-19)
(0.829377 0.0944973 6.61862e-19)
(1.11968 0.149946 3.00912e-19)
(1.26951 0.177224 -2.24393e-19)
(1.32825 0.182316 -3.69154e-19)
(1.34049 0.17428 1.34553e-20)
(1.33332 0.160285 -7.18712e-20)
(1.31966 0.144222 6.05421e-19)
(1.3045 0.127883 -2.73351e-19)
(1.2894 0.112064 -3.09584e-20)
(1.27473 0.0971436 6.91568e-20)
(1.26054 0.0833214 -4.24184e-20)
(1.24682 0.0706994 -8.40185e-20)
(1.23362 0.0593231 2.28126e-19)
(1.22098 0.0491846 -1.82131e-19)
(1.20895 0.0402386 1.9725e-20)
(1.19758 0.0324299 -9.60699e-20)
(1.18688 0.0259099 -9.6237e-20)
(1.17701 0.0186571 -2.94555e-20)
(0.06474 -0.00970866 -1.22061e-19)
(0.470239 0.0229729 2.92432e-19)
(0.901678 0.116153 -2.67768e-19)
(1.16771 0.170287 -2.77591e-19)
(1.29289 0.193422 4.59732e-19)
(1.33493 0.194793 4.87315e-19)
(1.33816 0.184361 2.35029e-19)
(1.32692 0.169102 -4.04143e-21)
(1.3117 0.152441 -5.93519e-19)
(1.2961 0.135833 5.00082e-20)
(1.28103 0.119886 1.89587e-20)
(1.26662 0.104892 1.22418e-19)
(1.25281 0.0910029 1.94264e-19)
(1.23958 0.078293 -1.12131e-20)
(1.22691 0.0667915 -4.22971e-20)
(1.21484 0.0564788 1.62448e-19)
(1.20339 0.0473124 -1.03515e-19)
(1.19259 0.0392579 1.20643e-19)
(1.18245 0.0322884 -1.04597e-20)
(1.17309 0.0249958 1.14819e-19)
(0.0918392 -0.010464 2.13821e-19)
(0.54067 0.0408736 1.14211e-19)
(0.967278 0.139223 -2.61609e-19)
(1.20779 0.191002 -3.24407e-19)
(1.31005 0.209521 -2.35862e-20)
(1.33779 0.207155 -5.36956e-20)
(1.33387 0.194439 2.61251e-19)
(1.31964 0.177966 1.81564e-19)
(1.30338 0.160679 1.94055e-19)
(1.28754 0.143729 -6.89935e-20)
(1.27258 0.127575 8.99247e-20)
(1.25844 0.112431 -8.14953e-20)
(1.24502 0.0984102 -1.61322e-19)
(1.23225 0.085561 1.96299e-20)
(1.2201 0.0738961 3.97536e-20)
(1.20857 0.0633848 4.51258e-20)
(1.19767 0.0539872 5.82377e-20)
(1.18741 0.0456656 -3.39119e-20)
(1.17779 0.0382832 6.32497e-20)
(1.16891 0.0309305 -1.37826e-19)
(0.12236 -0.00909161 2.8097e-19)
(0.610235 0.0620704 -2.59704e-20)
(1.02581 0.163443 3.66965e-19)
(1.24049 0.211932 2.24168e-19)
(1.32186 0.225489 9.97644e-20)
(1.33752 0.219423 -2.4547e-19)
(1.32804 0.204525 -2.32496e-19)
(1.31166 0.186869 -6.41019e-20)
(1.29474 0.168915 -1.70319e-20)
(1.27881 0.151554 -1.66878e-20)
(1.26401 0.135116 -2.17203e-19)
(1.25018 0.119754 4.63488e-20)
(1.23715 0.105546 8.16295e-20)
(1.22483 0.092512 2.70914e-21)
(1.21317 0.0806501 9.33312e-21)
(1.20215 0.0699188 -2.42235e-20)
(1.19178 0.0602786 -5.48442e-20)
(1.18202 0.0516747 -4.35379e-20)
(1.17291 0.0439087 -8.71288e-20)
(1.16447 0.0364773 1.24258e-20)
(0.155935 -0.00519714 -1.72615e-19)
(0.677541 0.0861361 1.09107e-19)
(1.07719 0.188584 -4.55646e-20)
(1.26642 0.23294 1.08527e-20)
(1.32905 0.241305 -4.1174e-19)
(1.33469 0.231611 1.02169e-19)
(1.32095 0.214622 6.54713e-20)
(1.30308 0.195795 -4.45439e-20)
(1.28577 0.177126 1.59563e-19)
(1.26988 0.159284 -2.32898e-21)
(1.25529 0.142495 6.80487e-20)
(1.24178 0.126855 7.78406e-20)
(1.22915 0.112409 -5.22511e-20)
(1.21729 0.0991509 -5.98414e-20)
(1.20611 0.087063 -3.15473e-20)
(1.1956 0.0760939 -3.24876e-20)
(1.18572 0.0661998 2.82961e-20)
(1.17645 0.0573016 3.1152e-20)
(1.16782 0.0491835 4.7639e-20)
(1.15979 0.0416553 5.28389e-20)
(0.192052 0.00146786 -8.00479e-20)
(0.741409 0.112662 -1.64765e-20)
(1.12152 0.214444 -1.47255e-19)
(1.28618 0.253903 1.36752e-19)
(1.33228 0.256947 2.95188e-19)
(1.32973 0.243725 1.61038e-19)
(1.3128 0.224719 -7.25337e-20)
(1.29395 0.204715 -4.17008e-20)
(1.27647 0.185281 -9.40581e-20)
(1.26071 0.166896 8.98977e-20)
(1.2464 0.149694 -3.31672e-21)
(1.23324 0.133723 -4.28151e-20)
(1.22102 0.118995 -4.92462e-20)
(1.20961 0.105479 -4.58581e-20)
(1.19891 0.0931412 9.28704e-20)
(1.18888 0.0819194 -3.09291e-20)
(1.17949 0.0717617 -3.21245e-20)
(1.17069 0.0625626 -5.3102e-21)
(1.16252 0.0541204 -5.12137e-21)
(1.15488 0.0464759 -2.9475e-20)
(0.230094 0.0109982 -7.85511e-21)
(0.800896 0.141253 -1.08495e-19)
(1.15904 0.240835 4.99732e-20)
(1.30038 0.274718 -1.79235e-19)
(1.33208 0.272395 -1.2541e-19)
(1.32297 0.255758 1.8556e-20)
(1.30374 0.234791 -1.98552e-21)
(1.2843 0.213597 8.19431e-21)
(1.26683 0.193346 2.55539e-20)
(1.25129 0.174359 4.45522e-20)
(1.2373 0.156691 -6.01711e-20)
(1.22453 0.140345 2.47599e-20)
(1.21274 0.125299 4.24119e-20)
(1.20179 0.111497 -9.22448e-21)
(1.19157 0.0988885 -3.91203e-20)
(1.18202 0.0874026 2.13415e-20)
(1.17309 0.0769733 2.34918e-20)
(1.16475 0.067471 2.30872e-20)
(1.15701 0.0587313 -1.11863e-20)
(1.14975 0.050954 3.86905e-21)
(0.269375 0.0233592 8.84724e-20)
(0.855301 0.17153 -1.25563e-19)
(1.19004 0.267572 -1.71835e-20)
(1.30956 0.295298 7.31534e-20)
(1.32893 0.287621 1.18225e-19)
(1.31466 0.267692 -3.62273e-20)
(1.29385 0.244806 -1.03176e-19)
(1.27415 0.222398 1.01762e-19)
(1.25683 0.201282 -2.7195e-20)
(1.24159 0.181644 -3.09579e-20)
(1.22797 0.163466 2.77654e-20)
(1.21562 0.146707 -1.34864e-20)
(1.20429 0.131312 -3.89763e-21)
(1.19381 0.117201 9.95146e-21)
(1.18407 0.104307 1.39879e-20)
(1.17499 0.0925484 1.74554e-20)
(1.16653 0.0818421 -3.00637e-20)
(1.15864 0.0720381 -7.13727e-21)
(1.15132 0.0630245 -1.67636e-21)
(1.1444 0.0550993 8.11484e-21)
(0.309143 0.0384263 -4.85141e-20)
(0.904138 0.203124 8.71966e-20)
(1.21485 0.294471 -1.08541e-20)
(1.31424 0.315563 -2.35078e-20)
(1.32319 0.302596 -7.69112e-20)
(1.30501 0.279495 3.60253e-20)
(1.28321 0.254722 2.36098e-20)
(1.26349 0.231075 -2.59721e-20)
(1.24645 0.209051 -4.18535e-21)
(1.23159 0.18872 1.21493e-20)
(1.21839 0.169995 -1.28674e-20)
(1.2065 0.152791 6.39994e-21)
(1.19565 0.137024 -1.353e-20)
(1.18566 0.122586 7.6035e-21)
(1.17641 0.109396 1.53037e-21)
(1.16781 0.0973599 -6.49476e-21)
(1.1598 0.0863736 3.64204e-21)
(1.15236 0.0762726 -5.36035e-21)
(1.14545 0.0670079 1.68515e-21)
(1.13887 0.058925 5.75648e-21)
(0.348578 0.0560153 -3.46771e-20)
(0.947105 0.235682 7.59416e-20)
(1.2338 0.321348 -7.97479e-21)
(1.31488 0.335437 -3.01061e-20)
(1.31519 0.317281 -7.06356e-20)
(1.29413 0.291128 3.54908e-20)
(1.27183 0.264491 2.30143e-20)
(1.25232 0.23958 -2.05253e-20)
(1.23568 0.216611 -2.61432e-22)
(1.22127 0.195553 9.44312e-21)
(1.20856 0.176252 -8.27734e-21)
(1.19717 0.158581 -2.22098e-21)
(1.18683 0.142424 -4.75196e-21)
(1.17734 0.127646 2.7144e-21)
(1.16859 0.114153 1.71827e-21)
(1.16047 0.101838 -6.58579e-21)
(1.15293 0.0905716 7.04272e-21)
(1.14593 0.0801824 -6.58606e-21)
(1.13941 0.0706899 -1.52035e-21)
(1.13314 0.0624402 3.79961e-21)
(0.386893 0.0758724 1.00361e-19)
(0.983957 0.268824 -1.02363e-19)
(1.24714 0.347992 -7.36569e-20)
(1.31185 0.354844 9.61377e-20)
(1.30515 0.331641 1.09706e-19)
(1.28213 0.302548 -4.4706e-20)
(1.25973 0.274066 -7.38937e-20)
(1.24062 0.247868 8.03829e-20)
(1.22449 0.223925 -2.22768e-20)
(1.21062 0.202116 -2.56374e-20)
(1.19845 0.182217 1.97215e-20)
(1.18761 0.16406 -3.75727e-21)
(1.17781 0.147502 -8.89913e-21)
(1.16885 0.132377 2.77802e-21)
(1.16061 0.118578 1.28629e-20)
(1.15299 0.105984 1.44896e-20)
(1.14591 0.09444 -1.74781e-20)
(1.13935 0.0837734 -4.43807e-21)
(1.13322 0.0740831 -2.7836e-21)
(1.12724 0.06566 5.48258e-21)
(0.423573 0.0977873 4.45578e-20)
(1.01488 0.302305 -1.617e-19)
(1.25535 0.374267 4.55034e-20)
(1.30553 0.373717 -1.19079e-19)
(1.29329 0.345612 -1.39181e-19)
(1.26907 0.313684 2.25728e-20)
(1.24693 0.283372 8.81297e-21)
(1.22838 0.255874 -8.77831e-21)
(1.21287 0.230937 2.96307e-20)
(1.19962 0.208365 -1.04282e-21)
(1.18805 0.187856 -1.85877e-20)
(1.17781 0.169202 3.88665e-21)
(1.16859 0.152237 3.52123e-20)
(1.16019 0.136765 -2.79038e-21)
(1.15248 0.122662 -1.13037e-20)
(1.14535 0.109794 -6.33655e-21)
(1.13875 0.0979784 2.63457e-20)
(1.13264 0.0870472 1.07826e-20)
(1.12688 0.0771965 -5.91647e-21)
(1.1212 0.0685997 -6.71558e-21)
(0.458015 0.121528 -9.89577e-20)
(1.03989 0.335845 -1.88826e-20)
(1.25873 0.399989 -1.4146e-19)
(1.29624 0.391972 1.59354e-19)
(1.27978 0.359135 1.98855e-19)
(1.25502 0.324472 7.74205e-20)
(1.23342 0.292351 -1.42214e-20)
(1.21559 0.263548 1.60184e-20)
(1.20082 0.237607 -8.0898e-20)
(1.18827 0.214265 5.71128e-20)
(1.17738 0.193144 -1.72126e-20)
(1.16778 0.173986 -1.28273e-20)
(1.15918 0.156618 -3.39537e-20)
(1.15137 0.140805 -1.01295e-20)
(1.1442 0.126404 1.49689e-20)
(1.13759 0.113268 -9.11957e-21)
(1.13147 0.10119 -1.16028e-20)
(1.12581 0.0900222 3.18525e-21)
(1.12041 0.0800287 -1.8021e-21)
(1.11504 0.0712581 -1.49541e-20)
(0.489676 0.146832 -1.45834e-19)
(1.05913 0.369173 2.85812e-20)
(1.25759 0.424993 6.84925e-20)
(1.28423 0.409526 -7.52683e-20)
(1.26474 0.372138 -2.72892e-19)
(1.24001 0.334837 2.31519e-20)
(1.21922 0.300933 9.83843e-20)
(1.20226 0.270829 -3.63002e-20)
(1.18834 0.243887 7.74333e-20)
(1.17656 0.219771 -2.01901e-20)
(1.16646 0.19805 5.01235e-20)
(1.15754 0.178395 6.69989e-21)
(1.14959 0.160627 7.96695e-22)
(1.14238 0.144485 -2.74216e-20)
(1.13578 0.129799 -1.23888e-20)
(1.12969 0.116404 -5.49475e-21)
(1.12407 0.104078 5.01128e-21)
(1.11887 0.092699 7.69954e-21)
(1.11382 0.0825864 1.28325e-20)
(1.10878 0.0736469 2.04548e-20)
(0.518098 0.173413 1.86004e-19)
(1.07275 0.402027 6.97446e-20)
(1.25226 0.449112 2.31979e-19)
(1.26975 0.426289 1.13637e-19)
(1.24828 0.384545 8.94675e-20)
(1.22407 0.344705 -1.16718e-19)
(1.20432 0.30905 -1.04746e-19)
(1.1884 0.277659 -3.50961e-20)
(1.17545 0.24974 -1.93513e-20)
(1.16454 0.224845 -4.12285e-20)
(1.15525 0.20253 -6.27208e-20)
(1.14707 0.182419 -9.14248e-22)
(1.1398 0.164255 2.78149e-20)
(1.13323 0.147793 5.12236e-20)
(1.12722 0.132837 -4.87786e-20)
(1.12168 0.119201 1.06709e-20)
(1.11657 0.106646 -1.20571e-20)
(1.11182 0.0950846 -4.73244e-21)
(1.10714 0.0848729 -2.36083e-20)
(1.10243 0.0757734 -5.06208e-21)
(0.542912 0.200953 4.08138e-19)
(1.08093 0.434148 -3.85862e-20)
(1.24302 0.472187 -1.82005e-19)
(1.25298 0.442166 -2.50893e-19)
(1.23049 0.396271 -5.49469e-20)
(1.20723 0.353993 -2.4296e-22)
(1.18876 0.316629 1.41268e-19)
(1.17404 0.283979 1.1337e-19)
(1.16215 0.255099 7.51703e-20)
(1.1522 0.229473 -3.02504e-20)
(1.14376 0.206573 2.22006e-20)
(1.13638 0.186014 -2.04091e-20)
(1.12984 0.167482 -3.64841e-20)
(1.12394 0.15072 1.28778e-20)
(1.11855 0.135514 -4.07285e-21)
(1.11357 0.121656 1.07436e-20)
(1.10898 0.108895 1.40639e-20)
(1.10469 0.0971801 -2.47688e-21)
(1.10039 0.086894 1.4729e-20)
(1.09601 0.0776469 -8.83043e-21)
(0.563836 0.229114 -2.57265e-19)
(1.08389 0.465279 3.0852e-19)
(1.23015 0.494059 -1.37493e-19)
(1.23411 0.457059 -6.60278e-20)
(1.21144 0.407223 2.07575e-19)
(1.18955 0.362618 2.01852e-19)
(1.17258 0.323597 6.84445e-20)
(1.15918 0.289732 -5.16858e-20)
(1.14843 0.259935 -1.10119e-19)
(1.13953 0.233599 -2.09596e-21)
(1.13202 0.21015 1.22044e-20)
(1.12549 0.189166 2.69636e-20)
(1.11972 0.170292 2.37174e-20)
(1.11452 0.153255 -7.33762e-21)
(1.10976 0.137823 1.4654e-20)
(1.10536 0.123767 4.14418e-21)
(1.10131 0.110828 -5.92566e-21)
(1.0975 0.0989895 8.48371e-21)
(1.09357 0.0886519 5.70002e-21)
(1.08955 0.0792752 3.93499e-21)
(0.580668 0.257536 4.12684e-20)
(1.08185 0.495163 -5.4991e-19)
(1.21392 0.514572 3.43698e-19)
(1.2133 0.470865 2.11682e-19)
(1.19124 0.417307 -2.10464e-20)
(1.17109 0.370488 -1.73596e-19)
(1.15578 0.329893 -1.38916e-20)
(1.14381 0.294866 -3.67271e-20)
(1.13434 0.264193 1.16017e-19)
(1.12656 0.237194 -9.79793e-21)
(1.12005 0.213231 -2.04277e-20)
(1.11442 0.191853 6.28847e-21)
(1.10946 0.172669 -6.12815e-21)
(1.10498 0.155386 -3.88299e-21)
(1.10088 0.139756 1.56372e-20)
(1.09709 0.12553 -1.98723e-20)
(1.09359 0.112443 3.25661e-21)
(1.09026 0.100513 -3.31898e-21)
(1.08672 0.0901496 -5.34048e-22)
(1.08307 0.0806645 4.83157e-22)
(0.593293 0.285854 -5.16254e-19)
(1.07504 0.523546 5.27332e-20)
(1.19455 0.533566 -1.16275e-19)
(1.19072 0.48347 1.5308e-19)
(1.17001 0.426432 -2.9395e-20)
(1.15185 0.37752 -1.23609e-19)
(1.13838 0.335446 -1.23579e-19)
(1.12798 0.299324 2.60928e-20)
(1.11989 0.267832 -2.47714e-20)
(1.11331 0.240219 2.20825e-20)
(1.10786 0.215788 2.87515e-20)
(1.10317 0.194054 -1.89191e-20)
(1.09906 0.174596 -2.4936e-21)
(1.09535 0.157102 1.15061e-20)
(1.09193 0.141306 -1.27351e-20)
(1.08875 0.126943 3.2127e-21)
(1.08582 0.113742 1.23768e-21)
(1.08298 0.101752 -4.25992e-21)
(1.07984 0.0913872 -3.13407e-21)
(1.07658 0.08182 -1.06836e-20)
(0.601669 0.313699 2.34237e-19)
(1.06372 0.550188 4.98279e-19)
(1.17227 0.55087 -4.97625e-19)
(1.16657 0.494769 2.94006e-20)
(1.14777 0.434498 -1.20827e-19)
(1.13186 0.38364 2.46418e-19)
(1.12041 0.340184 -7.45561e-20)
(1.11172 0.303051 -4.10343e-21)
(1.10511 0.270809 -2.2162e-20)
(1.09981 0.242641 2.70219e-20)
(1.09548 0.217794 -5.37619e-21)
(1.09179 0.19575 -1.09598e-20)
(1.08856 0.17606 1.12148e-21)
(1.08563 0.158392 -4.53147e-21)
(1.08292 0.142466 4.83661e-21)
(1.08038 0.128001 -1.10667e-20)
(1.07802 0.114723 5.23452e-22)
(1.07568 0.102705 -4.12455e-21)
(1.07296 0.0923643 -5.44165e-21)
(1.07012 0.0827458 1.17831e-20)
(0.605833 0.340704 -1.82646e-19)
(1.04823 0.574879 -1.76819e-19)
(1.14731 0.56631 7.93686e-20)
(1.14097 0.504634 1.90942e-20)
(1.12457 0.441413 -1.83565e-20)
(1.11119 0.388762 -1.6588e-19)
(1.10194 0.344042 5.64489e-20)
(1.09508 0.305995 -4.86414e-20)
(1.09003 0.273083 1.66849e-21)
(1.08609 0.244427 -9.5814e-21)
(1.08294 0.219223 2.04142e-21)
(1.08028 0.196921 -3.22595e-21)
(1.07797 0.177043 7.11559e-21)
(1.07586 0.159244 3.40393e-21)
(1.07388 0.143227 -2.06099e-21)
(1.07199 0.128699 -4.34999e-21)
(1.07022 0.115382 6.78602e-21)
(1.06839 0.103369 9.03355e-21)
(1.06609 0.0930783 1.59211e-20)
(1.06369 0.0834454 8.49775e-21)
(0.605892 0.366503 -4.26455e-19)
(1.02886 0.597414 6.28306e-19)
(1.11989 0.579755 2.08215e-19)
(1.11401 0.51291 -1.4956e-19)
(1.10052 0.447084 1.17057e-19)
(1.0899 0.39281 3.65634e-20)
(1.083 0.346958 4.16037e-20)
(1.07809 0.308107 3.15177e-21)
(1.0747 0.274614 1.48741e-20)
(1.07217 0.245548 -5.31157e-21)
(1.07026 0.220052 -1.66782e-21)
(1.06868 0.197547 -1.02281e-20)
(1.06732 0.177534 -3.73989e-20)
(1.06605 0.159648 1.63958e-20)
(1.06482 0.143581 8.04805e-21)
(1.06361 0.129031 1.43398e-20)
(1.06243 0.115715 -1.94707e-20)
(1.06111 0.103738 1.01324e-21)
(1.05927 0.0935245 1.71788e-20)
(1.05732 0.0839226 5.32185e-20)
(0.60202 0.390748 9.58745e-19)
(1.00578 0.617508 -4.97251e-19)
(1.09034 0.591127 6.2908e-20)
(1.08585 0.519481 -1.96585e-19)
(1.07572 0.451406 -6.86282e-20)
(1.06806 0.395713 7.09504e-22)
(1.06366 0.348874 -1.11753e-20)
(1.0608 0.309342 -1.12753e-20)
(1.05916 0.275369 -1.82438e-21)
(1.05811 0.245975 -4.62233e-20)
(1.05748 0.220258 2.90248e-20)
(1.05702 0.197613 3.48308e-21)
(1.05664 0.177518 1.71096e-20)
(1.05624 0.159594 -2.76109e-20)
(1.05577 0.143521 3.47759e-20)
(1.05524 0.128992 1.26695e-20)
(1.05467 0.115716 -1.87794e-20)
(1.05388 0.103801 -3.39393e-21)
(1.0525 0.0936905 -6.24524e-20)
(1.05104 0.0841786 -3.04789e-20)
(0.594446 0.413194 -4.63565e-19)
(0.979049 0.634786 -5.07707e-19)
(1.059 0.600332 1.67856e-19)
(1.05668 0.524285 8.96957e-20)
(1.05026 0.454292 1.05971e-19)
(1.04576 0.397402 -1.54567e-20)
(1.04398 0.349738 -2.14358e-20)
(1.04327 0.309656 3.59665e-20)
(1.04345 0.275312 -7.2415e-20)
(1.04394 0.245682 1.64168e-20)
(1.04464 0.219822 -2.71612e-20)
(1.04533 0.197103 1.05613e-20)
(1.04595 0.176984 -6.13772e-20)
(1.04644 0.159072 2.49828e-20)
(1.04676 0.143039 -5.234e-20)
(1.04693 0.128574 2.33949e-20)
(1.04697 0.11538 1.12399e-20)
(1.04671 0.103548 3.43003e-20)
(1.04581 0.0935536 5.43988e-20)
(1.04485 0.0842044 -7.89677e-21)
(0.583394 0.433684 1.57519e-19)
(0.948977 0.649005 5.06323e-19)
(1.02611 0.607157 -1.28735e-19)
(1.02663 0.527269 1.34012e-19)
(1.02425 0.455664 -4.00016e-20)
(1.02308 0.397812 -1.68772e-20)
(1.02404 0.349502 5.19823e-20)
(1.02557 0.309013 -4.59427e-20)
(1.02763 0.274416 -1.31523e-22)
(1.02971 0.244647 1.32089e-20)
(1.03177 0.218726 3.92656e-22)
(1.03363 0.196004 1.0947e-19)
(1.03529 0.175921 5.52283e-20)
(1.03668 0.158074 -2.86552e-20)
(1.03781 0.142129 3.31361e-20)
(1.03869 0.127776 -2.35132e-20)
(1.03934 0.114705 -8.62554e-22)
(1.0396 0.10297 -1.28868e-19)
(1.0392 0.0930888 -5.798e-20)
(1.03878 0.0839755 -4.68135e-20)
(0.568956 0.451951 3.47419e-20)
(0.916191 0.660174 1.57497e-19)
(0.991867 0.611396 -1.28916e-19)
(0.995874 0.528347 -1.50541e-20)
(0.9978 0.455457 -3.14417e-20)
(1.00009 0.396888 -2.57652e-20)
(1.0039 0.348124 -3.9439e-20)
(1.00774 0.30738 -2.76571e-20)
(1.01174 0.272655 -2.92298e-20)
(1.01545 0.24285 5.66183e-20)
(1.01891 0.216955 -5.46149e-20)
(1.02198 0.194303 -1.71916e-19)
(1.02468 0.174319 -4.12126e-20)
(1.027 0.156592 -2.01804e-20)
(1.02894 0.140784 6.20903e-20)
(1.03053 0.126592 -1.06258e-20)
(1.03179 0.113692 1.29498e-20)
(1.0326 0.102076 -2.37697e-20)
(1.03275 0.0922984 8.72304e-20)
(1.03287 0.0834901 -5.61553e-20)
(0.551177 0.46751 7.99405e-20)
(0.881224 0.668246 -3.1027e-19)
(0.956516 0.612975 5.07287e-20)
(0.964571 0.527434 -2.61337e-20)
(0.971029 0.453613 1.05118e-20)
(0.976911 0.394582 1.34741e-19)
(0.983656 0.345567 -1.21076e-19)
(0.989869 0.304729 -3.27837e-20)
(0.995853 0.270008 7.00315e-21)
(1.00123 0.240276 -2.11828e-19)
(1.00611 0.214497 3.73235e-20)
(1.01039 0.191992 1.37598e-19)
(1.01416 0.172173 1.37092e-19)
(1.01741 0.154621 3.43283e-20)
(1.02019 0.138998 -5.17904e-20)
(1.02249 0.125014 -2.05369e-20)
(1.02436 0.112331 6.21508e-20)
(1.02576 0.100863 7.15962e-21)
(1.02657 0.0912155 9.63513e-21)
(1.02732 0.0828712 9.45278e-20)
(0.530416 0.480025 -3.86073e-19)
(0.844405 0.673041 1.39957e-19)
(0.92029 0.611866 7.99351e-21)
(0.932885 0.524458 -5.58134e-21)
(0.944063 0.450082 1.036e-19)
(0.95363 0.390856 -6.40828e-20)
(0.963378 0.341801 8.6534e-20)
(0.972014 0.301039 -6.30771e-20)
(0.98002 0.266458 -1.03093e-19)
(0.987083 0.236912 3.28817e-19)
(0.993402 0.211343 8.42142e-21)
(0.998922 0.189064 -1.93461e-20)
(1.00377 0.169476 -6.11433e-20)
(1.00796 0.152156 -5.27138e-21)
(1.01156 0.136765 -4.47937e-21)
(1.01456 0.123028 3.96515e-20)
(1.01704 0.110595 -3.40323e-20)