/*--------------------------------*- C++ -*----------------------------------*\
  =========                 |
  \\      /  F ield         | OpenFOAM: The Open Source CFD Toolbox
   \\    /   O peration     | Website:  https://openfoam.org
    \\  /    A nd           | Version:  7
     \\/     M anipulation  |
\*---------------------------------------------------------------------------*/
FoamFile
{
    version     2.0;
    format      ascii;
    class       volScalarField;
    location    "5";
    object      p;
}
// * * * * * * * * * * * * * * * * * * * * * * * * * * * * * * * * * * * * * //

dimensions      [0 2 -2 0 0 0 0];

internalField   nonuniform List<scalar> 
2625
(
-0.416611
0.987683
0.81167
0.987683
0.81167
0.79898
0.713191
0.680355
0.986556
0.810721
0.798085
0.712431
0.679683
0.984302
0.808824
0.796297
0.710912
0.67834
0.980926
0.805982
0.793617
0.708635
0.676327
0.976433
0.8022
0.79005
0.705605
0.673647
0.970831
0.797485
0.785602
0.701826
0.670304
0.964127
0.791843
0.780279
0.697303
0.666302
0.609455
0.956333
0.785285
0.77409
0.692043
0.661646
0.605513
0.947462
0.777821
0.767044
0.686054
0.656343
0.601023
0.937528
0.769464
0.759152
0.679343
0.6504
0.595989
0.926546
0.760226
0.750427
0.671921
0.643824
0.590417
0.914534
0.750124
0.740881
0.663799
0.636625
0.584315
0.901511
0.739173
0.73053
0.654988
0.628812
0.57769
0.887498
0.727392
0.719388
0.6455
0.620395
0.57055
0.872517
0.714799
0.707474
0.635351
0.611385
0.562904
0.856591
0.701415
0.694805
0.624553
0.601794
0.554762
0.839747
0.687262
0.681401
0.613123
0.591635
0.546132
0.82201
0.672363
0.667282
0.601078
0.580922
0.537027
0.803408
0.656742
0.65247
0.588433
0.569667
0.527456
0.78397
0.640423
0.636987
0.575208
0.557887
0.517432
0.763727
0.623433
0.620857
0.561421
0.545597
0.506967
0.74271
0.605799
0.604104
0.547093
0.532812
0.496074
0.720952
0.587549
0.586752
0.532242
0.51955
0.484765
0.698485
0.568712
0.56883
0.516891
0.505828
0.473055
0.452256
0.675346
0.549317
0.550362
0.501061
0.491663
0.460957
0.441712
0.651569
0.529395
0.531377
0.484775
0.477075
0.448486
0.430834
0.62719
0.508977
0.511903
0.468055
0.462082
0.435658
0.419636
0.602246
0.488095
0.491969
0.450924
0.446703
0.422487
0.408129
0.576775
0.466781
0.471604
0.433408
0.430959
0.408989
0.396326
0.550815
0.445067
0.450839
0.41553
0.414869
0.395181
0.384241
0.524405
0.422987
0.429703
0.397315
0.398455
0.381079
0.371886
0.497583
0.400574
0.408227
0.378789
0.381737
0.366699
0.359276
0.470389
0.377862
0.386443
0.359976
0.364737
0.352059
0.346424
0.333056
0.442864
0.354884
0.364382
0.340903
0.347477
0.337176
0.333344
0.321753
0.415045
0.331675
0.342075
0.321596
0.329978
0.322068
0.32005
0.310254
0.386975
0.308268
0.319554
0.302081
0.312263
0.306751
0.306557
0.298571
0.358692
0.284698
0.296852
0.282384
0.294354
0.291245
0.29288
0.286717
0.330237
0.260998
0.273999
0.262533
0.276273
0.275566
0.279033
0.274702
0.301647
0.237202
0.251028
0.242553
0.258043
0.259734
0.265031
0.262539
0.259515
0.272971
0.213346
0.227971
0.222471
0.239687
0.243766
0.250889
0.25024
0.248706
0.244263
0.189473
0.204865
0.202317
0.221229
0.227682
0.236622
0.237817
0.237778
0.215517
0.165592
0.18173
0.18211
0.202689
0.211499
0.222245
0.225282
0.22674
0.186787
0.141744
0.1586
0.161881
0.184091
0.195235
0.207773
0.212648
0.215602
0.158119
0.117963
0.135508
0.141654
0.165457
0.178909
0.193222
0.199926
0.204374
0.204801
0.129549
0.0942828
0.112484
0.121457
0.14681
0.16254
0.178606
0.18713
0.193067
0.194852
0.101114
0.0707319
0.0895579
0.101313
0.128172
0.146146
0.163941
0.174271
0.181691
0.18483
0.0728489
0.0473405
0.0667586
0.0812495
0.109566
0.129745
0.149243
0.161361
0.170255
0.174745
0.0447897
0.0241379
0.0441148
0.0612899
0.0910139
0.113355
0.134525
0.148413
0.15877
0.164605
0.168063
0.0169704
0.00115243
0.0216545
0.0414588
0.0725368
0.0969941
0.119803
0.13544
0.147246
0.154419
0.159
-0.010575
-0.0215888
-0.00059503
0.02178
0.0541562
0.0806806
0.105092
0.122452
0.135692
0.144194
0.149893
-0.0378134
-0.0440597
-0.0226075
0.00227675
0.0358935
0.0644317
0.0904072
0.109463
0.12412
0.133939
0.140749
0.144987
-0.0647162
-0.0662326
-0.044357
-0.0170282
0.0177692
0.0482651
0.0757627
0.0964838
0.112538
0.123662
0.131575
0.136785
-0.0912575
-0.088081
-0.0658173
-0.0361131
-0.000196459
0.0321978
0.0611733
0.0835271
0.100957
0.113372
0.122378
0.128554
-0.117399
-0.10959
-0.0869634
-0.0549562
-0.0179835
0.0162468
0.0466534
0.0706045
0.0893865
0.103075
0.113166
0.120299
0.125443
-0.143114
-0.130724
-0.107786
-0.0735345
-0.0355726
0.000428778
0.0322172
0.0577277
0.0778363
0.0927816
0.103944
0.112027
0.117978
-0.168379
-0.151472
-0.128255
-0.0918252
-0.0529447
-0.0152401
0.0178786
0.0449082
0.066316
0.0824984
0.0947189
0.103742
0.110495
0.115594
-0.193167
-0.171813
-0.148325
-0.109831
-0.0700817
-0.0307439
0.00365154
0.0321576
0.0548351
0.0722336
0.0854983
0.0954511
0.102998
0.108784
-0.217455
-0.191726
-0.168004
-0.127511
-0.0869657
-0.046067
-0.0104505
0.0194871
0.043403
0.0619952
0.0762886
0.0871595
0.0954912
0.101958
-0.24122
-0.211193
-0.187271
-0.144851
-0.10358
-0.0611937
-0.0244143
0.00690783
0.0320292
0.0517907
0.0670962
0.0788729
0.0879805
0.0951206
0.100738
-0.26444
-0.230198
-0.206103
-0.161838
-0.11991
-0.0761089
-0.0382266
-0.00556927
0.0207227
0.0416281
0.0579277
0.0705969
0.0804705
0.0882754
0.0944557
0.0997341
-0.287095
-0.248725
-0.224485
-0.178455
-0.135933
-0.0908024
-0.051875
-0.0179334
0.00949273
0.0315148
0.0487896
0.0623372
0.0729661
0.0814269
0.0881631
0.0939126
-0.309167
-0.26676
-0.2424
-0.194688
-0.151641
-0.105256
-0.0653469
-0.0301741
-0.00165189
0.0214583
0.0396883
0.0540991
0.0654721
0.0745794
0.0818639
0.0880762
0.0928774
-0.330639
-0.284291
-0.259836
-0.210523
-0.167018
-0.119457
-0.0786301
-0.0422809
-0.0127024
0.0114661
0.0306299
0.0458882
0.0579933
0.0677373
0.0755621
0.0822286
0.0874096
-0.351494
-0.301305
-0.276779
-0.225947
-0.18205
-0.133394
-0.0917131
-0.0542437
-0.02365
0.0015453
0.0216209
0.0377099
0.0505346
0.060905
0.0692617
0.0763736
0.0819278
0.0878265
-0.37172
-0.317794
-0.293218
-0.240949
-0.196725
-0.147053
-0.104584
-0.0660527
-0.0344864
-0.0082968
0.0126673
0.0295694
0.0431008
0.0540867
0.0629666
0.0705148
0.0764355
0.082586
0.0857391
-0.391301
-0.333747
-0.309141
-0.255518
-0.21103
-0.160424
-0.117233
-0.0776983
-0.0452033
-0.0180532
0.00377511
0.0214722
0.0356965
0.0472869
0.056681
0.0646564
0.0709366
0.0773265
0.0807687
0.0888737
-0.410229
-0.349157
-0.324541
-0.269645
-0.224954
-0.173495
-0.129649
-0.089171
-0.0557924
-0.027717
-0.00504965
0.0134234
0.0283264
0.0405097
0.0504089
0.0588022
0.0654347
0.0720522
0.0757768
0.0837103
-0.428491
-0.364019
-0.339409
-0.28332
-0.238488
-0.186256
-0.141821
-0.100462
-0.0662459
-0.0372814
-0.0138012
0.00542808
0.0209951
0.0337595
0.0441544
0.0529562
0.0599339
0.0667677
0.0707669
0.0785131
-0.446081
-0.378325
-0.353739
-0.296537
-0.251621
-0.198698
-0.15374
-0.111562
-0.076556
-0.0467396
-0.0224737
-0.0025086
0.0137074
0.0270406
0.0379216
0.0471226
0.0544382
0.0614775
0.0657432
0.0732892
-0.46299
-0.392074
-0.367524
-0.309289
-0.264347
-0.21081
-0.165397
-0.122462
-0.0867152
-0.0560856
-0.0310613
-0.0103817
0.00646765
0.0203573
0.0317146
0.0413055
0.0489518
0.0561864
0.0607099
0.0680462
-0.479214
-0.405261
-0.380762
-0.32157
-0.276656
-0.222586
-0.176783
-0.133155
-0.0967161
-0.0653125
-0.0395588
-0.0181861
-0.000719606
0.0137138
0.0255375
0.0355091
0.0434788
0.0508993
0.0556716
0.0627918
-0.494748
-0.417885
-0.393448
-0.333377
-0.288543
-0.234016
-0.18789
-0.143633
-0.106552
-0.0744142
-0.0479606
-0.0259173
-0.0078499
0.00711418
0.0193944
0.0297376
0.0380237
0.0456214
0.0506333
-0.509589
-0.429947
-0.405582
-0.344706
-0.300002
-0.245094
-0.19871
-0.153888
-0.116215
-0.0833846
-0.0562615
-0.0335704
-0.0149188
0.000562853
0.0132894
0.0239953
0.0325909
0.0403578
0.0456003
-0.523735
-0.441446
-0.417162
-0.355555
-0.311029
-0.255814
-0.209235
-0.163913
-0.125699
-0.0922179
-0.064456
-0.0411407
-0.0219223
-0.00593583
0.00722646
0.0182863
0.0271848
0.0351138
0.0405781
-0.537187
-0.452385
-0.42819
-0.365924
-0.32162
-0.266171
-0.21946
-0.173701
-0.134997
-0.100908
-0.0725393
-0.0486237
-0.0288559
-0.0123792
0.00121079
0.0126152
0.0218099
0.0298948
0.0355725
-0.549945
-0.462766
-0.438667
-0.375812
-0.331771
-0.276158
-0.229377
-0.183245
-0.144104
-0.10945
-0.0805062
-0.0560148
-0.0357155
-0.0187619
-0.00475524
0.00698654
0.0164707
0.0247062
0.0305895
-0.562012
-0.472593
-0.448595
-0.38522
-0.341482
-0.285774
-0.238981
-0.19254
-0.153014
-0.117838
-0.088352
-0.0633097
-0.0424971
-0.0250801
-0.010667
0.00140264
0.0111732
0.0195535
0.0256354
-0.573392
-0.481872
-0.45798
-0.39415
-0.350752
-0.295013
-0.248269
-0.201579
-0.16172
-0.126066
-0.0960718
-0.0705042
-0.0491966
-0.03133
-0.0165203
-0.00413033
0.00592044
0.0144416
0.020717
-0.584088
-0.490608
-0.466825
-0.402607
-0.35958
-0.303875
-0.257234
-0.210358
-0.170217
-0.13413
-0.103661
-0.0775939
-0.0558101
-0.037508
-0.0223114
-0.00960838
0.000717097
0.00937584
0.0158413
-0.594106
-0.498806
-0.475135
-0.410591
-0.367967
-0.312356
-0.265873
-0.218872
-0.1785
-0.142025
-0.111115
-0.0845749
-0.0623339
-0.0436102
-0.0280366
-0.0150277
-0.00443195
0.00436263
0.0110136
-0.603448
-0.50647
-0.482914
-0.418107
-0.375914
-0.320455
-0.274182
-0.227115
-0.186564
-0.149746
-0.11843
-0.0914433
-0.0687644
-0.0496332
-0.0336921
-0.0203844
-0.0095222
-0.000593131
0.00624074
-0.612133
-0.513618
-0.490178
-0.425165
-0.383427
-0.328174
-0.28216
-0.235085
-0.194405
-0.157288
-0.125601
-0.0981948
-0.0750975
-0.055573
-0.0392741
-0.0256743
-0.014549
-0.00548634
0.00152998
-0.620167
-0.520257
-0.496933
-0.431772
-0.390509
-0.335515
-0.289806
-0.242779
-0.202019
-0.164648
-0.132625
-0.104826
-0.0813298
-0.0614263
-0.044779
-0.0308935
-0.019508
-0.0103121
-0.00311203
-0.627557
-0.526393
-0.503186
-0.437932
-0.397165
-0.342477
-0.297118
-0.250192
-0.209401
-0.17182
-0.139497
-0.111333
-0.0874581
-0.0671898
-0.0502036
-0.0360384
-0.0243951
-0.0150656
-0.00767885
-0.634313
-0.532038
-0.508948
-0.443655
-0.403399
-0.349063
-0.304095
-0.257322
-0.216548
-0.178802
-0.146213
-0.117712
-0.0934789
-0.0728603
-0.0555443
-0.0411054
-0.0292062
-0.0197423
-0.0121642
-0.640449
-0.537203
-0.514229
-0.448949
-0.409217
-0.355276
-0.310737
-0.264168
-0.223456
-0.185589
-0.15277
-0.123961
-0.0993891
-0.0784346
-0.0607981
-0.0460911
-0.0339371
-0.0243376
-0.0165618
-0.645975
-0.541899
-0.519041
-0.453824
-0.414627
-0.36112
-0.317045
-0.270728
-0.230124
-0.192177
-0.159165
-0.130075
-0.105185
-0.0839097
-0.0659619
-0.050992
-0.0385842
-0.0288475
-0.020866
-0.650906
-0.546137
-0.523395
-0.458289
-0.419637
-0.366599
-0.323021
-0.277
-0.236547
-0.198565
-0.165393
-0.136051
-0.110865
-0.0892827
-0.0710325
-0.0558051
-0.0431439
-0.033268
-0.0250711
-0.655254
-0.549932
-0.527305
-0.462357
-0.424254
-0.371719
-0.328666
-0.282986
-0.242725
-0.204748
-0.171453
-0.141887
-0.116425
-0.0945506
-0.0760073
-0.0605274
-0.0476126
-0.0375954
-0.0291722
-0.659033
-0.553294
-0.530782
-0.466037
-0.428488
-0.376485
-0.333984
-0.288683
-0.248656
-0.210725
-0.17734
-0.147579
-0.121862
-0.0997109
-0.0808834
-0.0651559
-0.0519873
-0.0418263
-0.0331644
-0.0289594
-0.662259
-0.556238
-0.53384
-0.469342
-0.432349
-0.380904
-0.338978
-0.294094
-0.254337
-0.216492
-0.183052
-0.153124
-0.127174
-0.104761
-0.0856585
-0.069688
-0.056265
-0.0459576
-0.0370435
-0.0329002
-0.664947
-0.558776
-0.536493
-0.472284
-0.435846
-0.384984
-0.343652
-0.29922
-0.259769
-0.222047
-0.188586
-0.15852
-0.132358
-0.109698
-0.09033
-0.0741213
-0.0604429
-0.0499864
-0.0408058
-0.0367197
-0.667112
-0.560923
-0.538754
-0.474875
-0.438991
-0.388732
-0.348011
-0.304061
-0.26495
-0.227389
-0.19394
-0.163764
-0.137412
-0.11452
-0.0948957
-0.0784534
-0.0645187
-0.0539102
-0.044448
-0.0404155
-0.66877
-0.562691
-0.540638
-0.477128
-0.441794
-0.392156
-0.35206
-0.308621
-0.269881
-0.232515
-0.199111
-0.168854
-0.142333
-0.119225
-0.0993534
-0.0826821
-0.0684902
-0.0577268
-0.0479675
-0.0439857
-0.669938
-0.564096
-0.542159
-0.479056
-0.444267
-0.395265
-0.355804
-0.312902
-0.274562
-0.237425
-0.204097
-0.173786
-0.147118
-0.12381
-0.103701
-0.0868056
-0.0723554
-0.061434
-0.0513621
-0.0474287
-0.670631
-0.56515
-0.543331
-0.480672
-0.446423
-0.398069
-0.359251
-0.316907
-0.278993
-0.242117
-0.208896
-0.178559
-0.151766
-0.128273
-0.107938
-0.0908219
-0.0761128
-0.0650303
-0.0546302
-0.0507434
-0.670868
-0.565869
-0.544169
-0.48199
-0.448272
-0.400577
-0.362407
-0.320641
-0.283176
-0.246591
-0.213507
-0.18317
-0.156275
-0.132613
-0.11206
-0.0947295
-0.079761
-0.0685139
-0.057771
-0.0539285
-0.670664
-0.566265
-0.544687
-0.483022
-0.449828
-0.402799
-0.365279
-0.324107
-0.287113
-0.250847
-0.217928
-0.187618
-0.160642
-0.136827
-0.116068
-0.0985268
-0.083299
-0.0718837
-0.0607841
-0.0569829
-0.670037
-0.566353
-0.5449
-0.483783
-0.451103
-0.404746
-0.367875
-0.327311
-0.290805
-0.254884
-0.222157
-0.191901
-0.164865
-0.140913
-0.119959
-0.102212
-0.0867259
-0.0751386
-0.0636699
-0.0599072
-0.669003
-0.566147
-0.544822
-0.484285
-0.452109
-0.406429
-0.370204
-0.330258
-0.294256
-0.258703
-0.226193
-0.196016
-0.168943
-0.144871
-0.123733
-0.105785
-0.0900413
-0.0782777
-0.0664292
-0.0627012
-0.667581
-0.565661
-0.544467
-0.484543
-0.45286
-0.407858
-0.372274
-0.332953
-0.297469
-0.262305
-0.230036
-0.199962
-0.172874
-0.148697
-0.127388
-0.109244
-0.093245
-0.0813002
-0.0690631
-0.0653643
-0.665786
-0.564907
-0.54385
-0.484568
-0.453369
-0.409045
-0.374095
-0.335403
-0.300446
-0.26569
-0.233686
-0.203738
-0.176655
-0.152391
-0.130922
-0.112588
-0.0963369
-0.0842053
-0.0715735
-0.0678958
-0.663636
-0.563901
-0.542984
-0.484374
-0.453647
-0.41
-0.375675
-0.337615
-0.303192
-0.268861
-0.237141
-0.207342
-0.180286
-0.155951
-0.134336
-0.115816
-0.0993174
-0.0869926
-0.0739629
-0.0702952
-0.661148
-0.562655
-0.541883
-0.483974
-0.453708
-0.410736
-0.377024
-0.339595
-0.305711
-0.271818
-0.240403
-0.210773
-0.183765
-0.159376
-0.137628
-0.118927
-0.102187
-0.0896615
-0.0762347
-0.0725614
-0.658339
-0.561182
-0.540561
-0.483381
-0.453564
-0.411263
-0.378152
-0.341351
-0.308008
-0.274565
-0.24347
-0.214031
-0.187091
-0.162663
-0.140796
-0.121921
-0.104946
-0.0922115
-0.0783926
-0.0746932
-0.655225
-0.559495
-0.539031
-0.482606
-0.453228
-0.411593
-0.379069
-0.342891
-0.310088
-0.277105
-0.246345
-0.217115
-0.190262
-0.165812
-0.143841
-0.124796
-0.107596
-0.0946419
-0.0804415
-0.0766887
-0.651822
-0.557607
-0.537306
-0.481662
-0.452711
-0.411737
-0.379785
-0.344223
-0.311958
-0.279439
-0.249028
-0.220024
-0.193277
-0.168822
-0.146761
-0.127552
-0.110138
-0.0969522
-0.0823866
-0.078545
-0.648147
-0.555529
-0.535399
-0.480561
-0.452026
-0.411706
-0.38031
-0.345354
-0.313621
-0.281572
-0.25152
-0.222757
-0.196135
-0.17169
-0.149556
-0.130188
-0.112574
-0.0991416
-0.0842343
-0.0802584
-0.644216
-0.553276
-0.533321
-0.479313
-0.451185
-0.411512
-0.380654
-0.346293
-0.315086
-0.283508
-0.253823
-0.225316
-0.198835
-0.174416
-0.152225
-0.132704
-0.114904
-0.101209
-0.0859915
-0.0818237
-0.640045
-0.550857
-0.531085
-0.47793
-0.450198
-0.411165
-0.380827
-0.347049
-0.316358
-0.28525
-0.255939
-0.2277
-0.201377
-0.176998
-0.154768
-0.135098
-0.11713
-0.103154
-0.0876663
-0.0832339
-0.635649
-0.548284
-0.528702
-0.476422
-0.449076
-0.410675
-0.380839
-0.347631
-0.317444
-0.286804
-0.25787
-0.22991
-0.20376
-0.179435
-0.157183
-0.13737
-0.119255
-0.104974
-0.0892678
-0.0844796
-0.631044
-0.54557
-0.526184
-0.4748
-0.447831
-0.410053
-0.380701
-0.348047
-0.318352
-0.288173
-0.25962
-0.231947
-0.205983
-0.181727
-0.159469
-0.139519
-0.121279
-0.106669
-0.0908058
-0.0855491
-0.626244
-0.542724
-0.523542
-0.473073
-0.446471
-0.40931
-0.380421
-0.348305
-0.319088
-0.289365
-0.261191
-0.233811
-0.208047
-0.183873
-0.161627
-0.141545
-0.123204
-0.108236
-0.0922914
-0.0864267
-0.621265
-0.539758
-0.520786
-0.471251
-0.445008
-0.408454
-0.380011
-0.348416
-0.31966
-0.290383
-0.262587
-0.235505
-0.209952
-0.185871
-0.163655
-0.143446
-0.125032
-0.109674
-0.0937365
-0.0870929
-0.616121
-0.536682
-0.517927
-0.469343
-0.443451
-0.407494
-0.379478
-0.348387
-0.320076
-0.291234
-0.263811
-0.237031
-0.211697
-0.187721
-0.165553
-0.145222
-0.126764
-0.110981
-0.0951534
-0.0875223
-0.610826
-0.533505
-0.514974
-0.467357
-0.441808
-0.406441
-0.378833
-0.348227
-0.320344
-0.291923
-0.264869
-0.23839
-0.213284
-0.189423
-0.16732
-0.146872
-0.128401
-0.112155
-0.0965552
-0.0876818
-0.605395
-0.530239
-0.511937
-0.465301
-0.440089
-0.405302
-0.378083
-0.347945
-0.32047
-0.292459
-0.265763
-0.239585
-0.214713
-0.190976
-0.168955
-0.148395
-0.129944
-0.113194
-0.0979544
-0.599841
-0.526892
-0.508825
-0.463184
-0.438301
-0.404086
-0.377239
-0.347549
-0.320463
-0.292845
-0.2665
-0.240619
-0.215986
-0.19238
-0.170457
-0.149791
-0.131392
-0.114099
-0.0993652
-0.594178
-0.523474
-0.505648
-0.461014
-0.436452
-0.402801
-0.376307
-0.347047
-0.320331
-0.293091
-0.267084
-0.241496
-0.217104
-0.193636
-0.171825
-0.15106
-0.132746
-0.114869
-0.100802
-0.588418
-0.519993
-0.502413
-0.458795
-0.43455
-0.401453
-0.375296
-0.346447
-0.320082
-0.293202
-0.267521
-0.242219
-0.218069
-0.194744
-0.173059
-0.152201
-0.134002
-0.115507
-0.102279
-0.582573
-0.516456
-0.499127
-0.456535
-0.4326
-0.400049
-0.374213
-0.345758
-0.319722
-0.293184
-0.267816
-0.242792
-0.218883
-0.195704
-0.174159
-0.153214
-0.13516
-0.116026
-0.576661
-0.512878
-0.495802
-0.454243
-0.430612
-0.398599
-0.373066
-0.344986
-0.31926
-0.293047
-0.267976
-0.24322
-0.219549
-0.196519
-0.175123
-0.1541
-0.136214
-0.116445
-0.570695
-0.509264
-0.492446
-0.451924
-0.428592
-0.397106
-0.371863
-0.34414
-0.318704
-0.292796
-0.268006
-0.243507
-0.22007
-0.197189
-0.175951
-0.154859
-0.137162
-0.11678
-0.564684
-0.505623
-0.489065
-0.449584
-0.426544
-0.395578
-0.370609
-0.343226
-0.31806
-0.292438
-0.267913
-0.243658
-0.220449
-0.197717
-0.176644
-0.155491
-0.137997
-0.117037
-0.558642
-0.501962
-0.485666
-0.447228
-0.424475
-0.39402
-0.36931
-0.342251
-0.317336
-0.291982
-0.267704
-0.24368
-0.220689
-0.198104
-0.1772
-0.155997
-0.138716
-0.552581
-0.49829
-0.482257
-0.444862
-0.42239
-0.392437
-0.367974
-0.341221
-0.316539
-0.291433
-0.267385
-0.243578
-0.220796
-0.198354
-0.177622
-0.156377
-0.139315
-0.546513
-0.494614
-0.478846
-0.442491
-0.420295
-0.390835
-0.366605
-0.340144
-0.315676
-0.2908
-0.266963
-0.243357
-0.220774
-0.198469
-0.177909
-0.156631
-0.139793
-0.540452
-0.490942
-0.475438
-0.440121
-0.418195
-0.389218
-0.36521
-0.339024
-0.314753
-0.290088
-0.266445
-0.243025
-0.220627
-0.198454
-0.178062
-0.156761
-0.140147
-0.534408
-0.487282
-0.472041
-0.437755
-0.416094
-0.387591
-0.363793
-0.337868
-0.313778
-0.289306
-0.265838
-0.242587
-0.220362
-0.198312
-0.178085
-0.156767
-0.140376
-0.528395
-0.483642
-0.468663
-0.4354
-0.413998
-0.385959
-0.362359
-0.336681
-0.312756
-0.28846
-0.265149
-0.242051
-0.219984
-0.198048
-0.177979
-0.156651
-0.140478
-0.522424
-0.480028
-0.465309
-0.43306
-0.41191
-0.384326
-0.360914
-0.33547
-0.311693
-0.287556
-0.264385
-0.241423
-0.219499
-0.197667
-0.177747
-0.156415
-0.516507
-0.476448
-0.461986
-0.43074
-0.409836
-0.382695
-0.359462
-0.334238
-0.310597
-0.286602
-0.263554
-0.240712
-0.218914
-0.197175
-0.177394
-0.15606
-0.510655
-0.47291
-0.458701
-0.428443
-0.40778
-0.381072
-0.358007
-0.332992
-0.309472
-0.285604
-0.262663
-0.239923
-0.218235
-0.196578
-0.176922
-0.155591
-0.504882
-0.46942
-0.455461
-0.426176
-0.405746
-0.37946
-0.356554
-0.331735
-0.308324
-0.284569
-0.261718
-0.239065
-0.217471
-0.195883
-0.176338
-0.155011
-0.499198
-0.465985
-0.452271
-0.423941
-0.403738
-0.377863
-0.355107
-0.330474
-0.307159
-0.283503
-0.260727
-0.238146
-0.216628
-0.195096
-0.175647
-0.154323
-0.493615
-0.462614
-0.449138
-0.421745
-0.401761
-0.376285
-0.35367
-0.329212
-0.305982
-0.282413
-0.259697
-0.237172
-0.215715
-0.194226
-0.174855
-0.153534
-0.488144
-0.459311
-0.446069
-0.419591
-0.399819
-0.374729
-0.352249
-0.327954
-0.3048
-0.281304
-0.258636
-0.236153
-0.21474
-0.19328
-0.173969
-0.152649
-0.482798
-0.456085
-0.44307
-0.417483
-0.397916
-0.3732
-0.350845
-0.326705
-0.303616
-0.280183
-0.25755
-0.235095
-0.21371
-0.192267
-0.172998
-0.477587
-0.452942
-0.440147
-0.415427
-0.396057
-0.371701
-0.349465
-0.325468
-0.302437
-0.279057
-0.256446
-0.234007
-0.212635
-0.191195
-0.171948
-0.472523
-0.449889
-0.437305
-0.413426
-0.394245
-0.370237
-0.348111
-0.32425
-0.301267
-0.27793
-0.255332
-0.232897
-0.211524
-0.190074
-0.170831
-0.467617
-0.446932
-0.434553
-0.411485
-0.392484
-0.36881
-0.346788
-0.323053
-0.300112
-0.276809
-0.254214
-0.231773
-0.210384
-0.188914
-0.169655
-0.462879
-0.444078
-0.431894
-0.409608
-0.39078
-0.367424
-0.3455
-0.321883
-0.298976
-0.2757
-0.253099
-0.230642
-0.209226
-0.187723
-0.168431
-0.45832
-0.441332
-0.429335
-0.4078
-0.389135
-0.366084
-0.34425
-0.320743
-0.297865
-0.274608
-0.251994
-0.229512
-0.208059
-0.186513
-0.16717
-0.45395
-0.438702
-0.426882
-0.406064
-0.387555
-0.364793
-0.343043
-0.319638
-0.296783
-0.27354
-0.250906
-0.228392
-0.206891
-0.185294
-0.165884
-0.449783
-0.436189
-0.424541
-0.404406
-0.386043
-0.363554
-0.341883
-0.318572
-0.295736
-0.272501
-0.249842
-0.22729
-0.205732
-0.184075
-0.164583
-0.445831
-0.433798
-0.422316
-0.402828
-0.384602
-0.362372
-0.340773
-0.317548
-0.294727
-0.271495
-0.248807
-0.226212
-0.20459
-0.182867
-0.163281
-0.442076
-0.431556
-0.420214
-0.401335
-0.383238
-0.36125
-0.339717
-0.316572
-0.293761
-0.270529
-0.247808
-0.225166
-0.203476
-0.181681
-0.16199
-0.438556
-0.429445
-0.418238
-0.399931
-0.381953
-0.360191
-0.338718
-0.315647
-0.292843
-0.269608
-0.246851
-0.22416
-0.202397
-0.180528
-0.160723
-0.435275
-0.427474
-0.416394
-0.398619
-0.380751
-0.359199
-0.337781
-0.314776
-0.291978
-0.268736
-0.245942
-0.223201
-0.201363
-0.179416
-0.159492
-0.432238
-0.425649
-0.414687
-0.397404
-0.379636
-0.358277
-0.336909
-0.313964
-0.291168
-0.267918
-0.245087
-0.222294
-0.200382
-0.178356
-0.15831
-0.429451
-0.423975
-0.41312
-0.396287
-0.378611
-0.357427
-0.336104
-0.313213
-0.290418
-0.267159
-0.244291
-0.221448
-0.199461
-0.177358
-0.157189
-0.426923
-0.422457
-0.411699
-0.395273
-0.377679
-0.356654
-0.335371
-0.312528
-0.289732
-0.266463
-0.24356
-0.220668
-0.198609
-0.176431
-0.424659
-0.421098
-0.410426
-0.394364
-0.376843
-0.35596
-0.334712
-0.31191
-0.289114
-0.265834
-0.242897
-0.219959
-0.197832
-0.175583
-0.422665
-0.419901
-0.409304
-0.393562
-0.376106
-0.355346
-0.334128
-0.311363
-0.288565
-0.265276
-0.242307
-0.219327
-0.197137
-0.174822
-0.420947
-0.418869
-0.408337
-0.392871
-0.375469
-0.354816
-0.333624
-0.31089
-0.288089
-0.264791
-0.241793
-0.218776
-0.19653
-0.174156
-0.419508
-0.418006
-0.407527
-0.392291
-0.374936
-0.354371
-0.333201
-0.310492
-0.287689
-0.264382
-0.24136
-0.21831
-0.196015
-0.173591
-0.418352
-0.417312
-0.406877
-0.391826
-0.374507
-0.354013
-0.33286
-0.310171
-0.287366
-0.264052
-0.241011
-0.217933
-0.195598
-0.173132
-0.417483
-0.41679
-0.406387
-0.391475
-0.374184
-0.353744
-0.332603
-0.309929
-0.287123
-0.263803
-0.240746
-0.217648
-0.195283
-0.172784
-0.416902
-0.416442
-0.40606
-0.391241
-0.373968
-0.353564
-0.332431
-0.309768
-0.28696
-0.263636
-0.240569
-0.217457
-0.19507
-0.17255
-0.416611
-0.416267
-0.405896
-0.391124
-0.373859
-0.353473
-0.332344
-0.309686
-0.286878
-0.263552
-0.24048
-0.217361
-0.194964
-0.172432
-0.0655149
-0.0654471
-0.0658264
-0.0652904
-0.0657527
-0.066143
-0.0650291
-0.0655916
-0.0660625
-0.0664642
-0.0653257
-0.0658968
-0.0663763
-0.0667898
-0.0649614
-0.0656257
-0.0662054
-0.0666938
-0.0671193
-0.0644867
-0.0652574
-0.0659289
-0.0665175
-0.0670146
-0.0674525
-0.0647786
-0.0655561
-0.066235
-0.0668324
-0.0673384
-0.0677889
-0.06419
-0.0650731
-0.0658575
-0.0665436
-0.0671498
-0.0676649
-0.0681282
-0.0634821
-0.0644806
-0.06537
-0.0661613
-0.0668545
-0.0674696
-0.0679937
-0.0684702
-0.0637687
-0.0647733
-0.0656691
-0.0664671
-0.0671674
-0.0677912
-0.0683243
-0.0629345
-0.0640574
-0.0650681
-0.0659702
-0.0667747
-0.067482
-0.0681145
-0.0686565
-0.0619702
-0.0632189
-0.0643479
-0.0653647
-0.0662728
-0.0670839
-0.0677981
-0.0684392
-0.0689898
-0.0622503
-0.0635051
-0.0646401
-0.0656627
-0.0665769
-0.0673944
-0.0681155
-0.0687651
-0.0693242
-0.0611467
-0.0625319
-0.0637928
-0.0649338
-0.065962
-0.0668823
-0.0677061
-0.0684339
-0.0690917
-0.0696593
-0.0614236
-0.062815
-0.0640819
-0.0652286
-0.0662625
-0.0671886
-0.0680187
-0.0687531
-0.069419
-0.0699949
-0.0601747
-0.0617017
-0.0630995
-0.064372
-0.0655244
-0.0665639
-0.0674958
-0.0683319
-0.0690729
-0.0697465
-0.0703307
-0.0604478
-0.0619812
-0.063385
-0.064663
-0.0658211
-0.0668661
-0.0678037
-0.0686457
-0.069393
-0.0700741
-0.0706664
-0.0590473
-0.060722
-0.062262
-0.0636713
-0.0649549
-0.0661185
-0.0671689
-0.068112
-0.0689597
-0.0697133
-0.0704014
-0.0710018
-0.0593157
-0.0609973
-0.0625435
-0.0639585
-0.0652476
-0.0664165
-0.0674722
-0.0684206
-0.0692738
-0.0700335
-0.0707283
-0.0713365
-0.0595851
-0.0612737
-0.0628258
-0.0642464
-0.0655408
-0.0667149
-0.0677758
-0.0687293
-0.0695878
-0.0703533
-0.0710544
-0.0716703
-0.058023
-0.0598556
-0.0615506
-0.0631087
-0.0645348
-0.0658345
-0.0670137
-0.0680795
-0.069038
-0.0699015
-0.0706725
-0.0713794
-0.0720029
-0.0582876
-0.0601273
-0.0618282
-0.0633921
-0.0648237
-0.0661286
-0.0673128
-0.0683833
-0.0693465
-0.0702146
-0.0709909
-0.0717033
-0.0723341
-0.0565649
-0.0585532
-0.0603997
-0.0621063
-0.063676
-0.0651131
-0.0664231
-0.067612
-0.068687
-0.0696546
-0.0705271
-0.0713083
-0.0720256
-0.0726635
-0.056824
-0.0588198
-0.0606727
-0.0623849
-0.0639603
-0.0654028
-0.0667177
-0.0679113
-0.0689905
-0.0699623
-0.0708387
-0.0716245
-0.0723463
-0.0729909
-0.0549317
-0.0570837
-0.0590871
-0.0609462
-0.0626639
-0.0642449
-0.0656925
-0.0670124
-0.0682103
-0.0692936
-0.0702692
-0.0711491
-0.071939
-0.0726647
-0.0733157
-0.0551839
-0.0573441
-0.0593547
-0.06122
-0.0629433
-0.0645297
-0.0659824
-0.0673069
-0.0685089
-0.0695959
-0.0705749
-0.0714578
-0.0722512
-0.0729801
-0.0736369
-0.0554372
-0.057606
-0.0596234
-0.061495
-0.0632241
-0.0648158
-0.0662736
-0.0676026
-0.0688087
-0.069899
-0.070881
-0.0717664
-0.0725625
-0.0732938
-0.0739555
-0.0533643
-0.0556907
-0.0578675
-0.0598923
-0.0617706
-0.0635059
-0.0651035
-0.0665667
-0.0679007
-0.0691111
-0.0702052
-0.0711904
-0.0720784
-0.0728771
-0.0736105
-0.0742765
-0.0536026
-0.0559372
-0.0581213
-0.0601533
-0.0620383
-0.0637798
-0.0653833
-0.066852
-0.0681911
-0.0694062
-0.0705044
-0.0714932
-0.0723843
-0.0731862
-0.0739224
-0.0745938
-0.0513399
-0.053837
-0.0561776
-0.0583662
-0.0604027
-0.0622915
-0.0640361
-0.065642
-0.0671127
-0.068453
-0.0696687
-0.070767
-0.0717554
-0.0726459
-0.0734479
-0.0741845
-0.0748599
-0.0516228
-0.0541283
-0.0564735
-0.0586649
-0.0607034
-0.0625928
-0.0643368
-0.0659405
-0.0674074
-0.0687425
-0.0699513
-0.0710411
-0.0720197
-0.0728988
-0.0736888
-0.0744127
-0.0750783
-0.0519945
-0.0545212
-0.0568857
-0.0590961
-0.0611536
-0.0630618
-0.0648239
-0.066445
-0.0679281
-0.0692779
-0.0704993
-0.0715987
-0.0725832
-0.0734631
-0.0742478
-0.0749575
-0.0756002
)
;

boundaryField
{
    inlet
    {
        type            zeroGradient;
    }
    outlet
    {
        type            fixedValue;
        value           nonuniform 0();
    }
    cylinder
    {
        type            zeroGradient;
    }
    top
    {
        type            symmetryPlane;
    }
    bottom
    {
        type            symmetryPlane;
    }
    defaultFaces
    {
        type            empty;
    }
    procBoundary5to0
    {
        type            processor;
        value           nonuniform List<scalar> 5(0.0906844 0.0906844 0.0939964 0.0939964 0.0881715);
    }
    procBoundary5to1
    {
        type            processor;
        value           nonuniform List<scalar> 
84
(
0.0832932
0.0783691
0.0734042
0.0684038
0.0575337
0.0633741
0.0575337
0.0522801
0.047039
0.0418185
0.0366268
0.0314718
0.0263614
0.0213031
0.0163048
0.0113737
0.00651676
0.00174057
-0.00294864
-0.007545
-0.0120431
-0.0164379
-0.0207248
-0.0248999
-0.0248999
-0.0262452
-0.0300026
-0.0336124
-0.0370693
-0.0403732
-0.043517
-0.0465075
-0.0493252
-0.0652087
-0.0651462
-0.0651462
-0.0649933
-0.0649933
-0.0647362
-0.0647362
-0.0643789
-0.0646686
-0.0646686
-0.0641976
-0.0641976
-0.0636161
-0.0639019
-0.0639019
-0.0631977
-0.0631977
-0.062371
-0.062652
-0.062652
-0.0616917
-0.0616917
-0.0605972
-0.0608715
-0.0608715
-0.0596319
-0.059903
-0.059903
-0.0585132
-0.0587801
-0.0587801
-0.0572341
-0.0574967
-0.0577597
-0.0577597
-0.0560484
-0.0563067
-0.0563067
-0.0544286
-0.0546804
-0.0546804
-0.0526288
-0.0528741
-0.0531198
-0.0531198
-0.0508841
-0.0511138
-0.0511138
-0.0486963
-0.0489732
-0.0493252
)
;
    }
    procBoundary5to2
    {
        type            processor;
        value           nonuniform List<scalar> 
35
(
-0.0762264
-0.0657955
-0.066118
-0.0664458
-0.0667786
-0.067116
-0.0674575
-0.0678027
-0.0681513
-0.0685028
-0.0688569
-0.0688142
-0.0688142
-0.0691602
-0.0695077
-0.0698563
-0.0702057
-0.0705554
-0.0709051
-0.0712542
-0.0716023
-0.0719491
-0.0722941
-0.0726368
-0.0729768
-0.0733139
-0.0736476
-0.0739776
-0.0743027
-0.0746239
-0.0749466
-0.0752669
-0.0755368
-0.075744
-0.0762264
)
;
    }
    procBoundary5to4
    {
        type            processor;
        value           nonuniform List<scalar> 
76
(
0.621348
0.620779
0.619643
0.617939
0.615672
0.612842
0.612842
0.57065
0.56724
0.563355
0.558999
0.554176
0.548892
0.543154
0.536968
0.53034
0.52328
0.515794
0.507891
0.499581
0.490872
0.481774
0.472299
0.462456
0.462456
0.424165
0.415113
0.40577
0.396145
0.386248
0.37609
0.365681
0.355032
0.344153
0.344153
0.321296
0.311413
0.301352
0.291122
0.280732
0.270193
0.270193
0.253184
0.243718
0.234138
0.224453
0.214671
0.214671
0.20374
0.194921
0.18603
0.177075
0.177075
0.169358
0.16128
0.153154
0.153154
0.147672
0.140294
0.132883
0.132883
0.129147
0.122382
0.122382
0.119482
0.113255
0.107006
0.107006
0.105537
0.105537
0.103757
0.0983278
0.0983278
0.0982347
0.093044
0.093044
)
;
    }
    procBoundary5to6
    {
        type            processor;
        value           nonuniform List<scalar> 
51
(
-0.0875373