/*--------------------------------*- C++ -*----------------------------------*\
  =========                 |
  \\      /  F ield         | OpenFOAM: The Open Source CFD Toolbox
   \\    /   O peration     | Website:  https://openfoam.org
    \\  /    A nd           | Version:  7
     \\/     M anipulation  |
\*---------------------------------------------------------------------------*/
FoamFile
{
    version     2.0;
    format      ascii;
    class       volVectorField;
    location    "5";
    object      U;
}
// * * * * * * * * * * * * * * * * * * * * * * * * * * * * * * * * * * * * * //

dimensions      [0 1 -1 0 0 0 0];

internalField   nonuniform List<vector> 
2625
(
(-0.00186132 0.000237582 -6.46061e-21)
(0.0132139 0.00357822 -1.53123e-20)
(0.0836062 0.00728758 4.16454e-21)
(0.0132139 -0.00357573 1.53123e-20)
(0.0836062 -0.00728206 -4.16454e-21)
(0.192199 -0.00891392 1.65179e-21)
(0.297888 -0.00930441 7.84441e-21)
(0.40359 -0.00891473 1.83439e-21)
(0.0134839 -0.0107221 -1.57814e-20)
(0.084128 -0.0218381 2.37045e-20)
(0.192806 -0.0267344 8.29017e-21)
(0.2985 -0.0279078 -5.58088e-21)
(0.404158 -0.0267411 1.47278e-20)
(0.0140234 -0.017846 -5.61949e-21)
(0.0851704 -0.0363533 -1.32439e-20)
(0.194017 -0.0445105 1.5241e-20)
(0.299723 -0.04647 -2.03097e-20)
(0.405294 -0.0445323 -3.84597e-20)
(0.0148307 -0.0249322 6.1057e-20)
(0.0867308 -0.0508005 1.58214e-20)
(0.195832 -0.0622131 -7.99721e-20)
(0.301554 -0.0649637 2.48218e-20)
(0.406996 -0.0622652 6.30023e-20)
(0.0159037 -0.0319658 -8.43205e-20)
(0.0888053 -0.0651527 4.17113e-20)
(0.198244 -0.0798127 1.04654e-19)
(0.30399 -0.0833617 -7.51086e-20)
(0.40926 -0.0799164 -4.71147e-20)
(0.0172393 -0.0389322 -4.72113e-20)
(0.0913889 -0.0793833 -5.38889e-20)
(0.201251 -0.0972804 -1.18292e-19)
(0.307026 -0.101637 1.38801e-19)
(0.412083 -0.0974628 1.32304e-19)
(0.0188337 -0.0458166 1.38096e-19)
(0.0944751 -0.0934657 2.96241e-20)
(0.204843 -0.114587 9.47351e-21)
(0.310657 -0.119762 -8.33318e-20)
(0.41546 -0.114882 -1.62666e-19)
(0.505808 -0.105265 -1.42283e-19)
(0.0206826 -0.0526048 -2.53526e-20)
(0.0980564 -0.107374 -6.04756e-20)
(0.209015 -0.131705 1.30937e-19)
(0.314874 -0.137712 5.6687e-21)
(0.419386 -0.13215 4.16923e-20)
(0.509336 -0.121124 1.29543e-19)
(0.0227808 -0.0592826 -7.82351e-20)
(0.102124 -0.121082 5.50897e-20)
(0.213756 -0.148605 6.38725e-20)
(0.319671 -0.155458 4.48993e-20)
(0.423853 -0.149245 2.67542e-21)
(0.513354 -0.136841 -5.54748e-20)
(0.0251225 -0.0658362 -4.56666e-20)
(0.106667 -0.134564 -1.56827e-19)
(0.219056 -0.165261 -2.37498e-19)
(0.325038 -0.172976 -1.426e-19)
(0.428855 -0.166145 -5.90786e-21)
(0.517854 -0.152396 -4.14417e-20)
(0.027701 -0.0722521 8.14229e-20)
(0.111675 -0.147797 1.73777e-19)
(0.224904 -0.181644 4.80713e-20)
(0.330965 -0.19024 1.90307e-19)
(0.434382 -0.182827 -4.73686e-20)
(0.52283 -0.167771 1.02767e-19)
(0.0305093 -0.0785171 1.96367e-19)
(0.117136 -0.160755 6.14368e-20)
(0.231287 -0.197728 -6.79756e-20)
(0.337439 -0.207224 -1.36923e-19)
(0.440426 -0.19927 1.232e-19)
(0.528276 -0.182948 -1.60996e-19)
(0.0335395 -0.0846186 -1.80462e-19)
(0.123036 -0.173416 -1.0104e-19)
(0.23819 -0.213487 1.66644e-19)
(0.344449 -0.223905 7.56049e-20)
(0.446976 -0.215453 -9.37495e-20)
(0.534182 -0.197909 9.39454e-20)
(0.0367832 -0.0905443 1.57908e-19)
(0.12936 -0.185755 -1.66123e-19)
(0.245599 -0.228895 -4.85592e-20)
(0.35198 -0.240257 -5.89882e-20)
(0.454021 -0.231354 -2.08241e-19)
(0.540541 -0.212638 9.62147e-20)
(0.0402313 -0.0962824 -9.60223e-20)
(0.136092 -0.197752 1.23136e-19)
(0.253496 -0.243929 -1.61392e-20)
(0.360019 -0.256257 2.53678e-19)
(0.461549 -0.246953 1.95348e-19)
(0.547342 -0.227115 -2.1352e-19)
(0.0438742 -0.101821 -1.08275e-19)
(0.143217 -0.209385 -4.5762e-20)
(0.261865 -0.258563 4.56455e-20)
(0.368549 -0.271883 -3.02679e-19)
(0.469546 -0.262229 1.66337e-19)
(0.554575 -0.241326 1.57702e-19)
(0.0477019 -0.107151 1.81426e-19)
(0.150716 -0.220633 7.49681e-20)
(0.270687 -0.272775 -1.65188e-19)
(0.377554 -0.287111 4.05105e-20)
(0.478001 -0.277164 -1.60753e-19)
(0.562229 -0.255252 -2.20513e-19)
(0.0517036 -0.11226 7.54626e-20)
(0.15857 -0.231476 5.2081e-20)
(0.279943 -0.286542 2.04744e-19)
(0.387016 -0.30192 2.72887e-20)
(0.486897 -0.291738 -1.17144e-19)
(0.570294 -0.268878 1.78896e-19)
(0.0558683 -0.11714 -3.85037e-19)
(0.166761 -0.241896 1.01861e-19)
(0.289611 -0.299842 -2.57084e-19)
(0.396916 -0.316288 1.20826e-20)
(0.496219 -0.305932 1.3499e-19)
(0.578755 -0.282189 -3.90329e-21)
(0.0601844 -0.121781 2.35031e-19)
(0.175267 -0.251876 -3.08918e-19)
(0.299671 -0.312656 3.07205e-19)
(0.407236 -0.330197 -2.56133e-22)
(0.505952 -0.319729 2.8618e-20)
(0.587602 -0.295168 1.1845e-19)
(0.0646399 -0.126175 8.90368e-20)
(0.184068 -0.261398 3.54593e-19)
(0.3101 -0.324963 -2.69191e-19)
(0.417954 -0.343626 -1.99632e-19)
(0.516079 -0.33311 -1.6934e-19)
(0.59682 -0.307801 -1.62344e-19)
(0.0692225 -0.130314 -2.32677e-19)
(0.193142 -0.270446 -2.6028e-19)
(0.320874 -0.336745 1.10352e-19)
(0.429049 -0.356556 2.37382e-19)
(0.526581 -0.346058 1.76214e-19)
(0.606396 -0.320074 9.88007e-20)
(0.0739195 -0.134191 2.57777e-19)
(0.202466 -0.279007 1.96638e-19)
(0.33197 -0.347984 2.66571e-19)
(0.4405 -0.36897 -3.23304e-20)
(0.537441 -0.358559 -9.25395e-20)
(0.616314 -0.331972 -5.38321e-20)
(0.0787178 -0.1378 -1.1568e-19)
(0.212018 -0.287067 1.08712e-20)
(0.343363 -0.358663 -8.7655e-20)
(0.452284 -0.380851 6.37447e-20)
(0.54864 -0.370595 -4.09031e-20)
(0.62656 -0.343481 -2.09795e-19)
(0.692689 -0.308252 4.11374e-19)
(0.0836043 -0.141135 -1.64457e-19)
(0.221772 -0.294613 -3.47809e-19)
(0.355027 -0.368768 -2.04891e-19)
(0.464377 -0.392182 7.79897e-22)
(0.560158 -0.382152 1.54737e-19)
(0.637117 -0.354589 9.12697e-20)
(0.702081 -0.31851 -2.40702e-19)
(0.0885654 -0.14419 -1.35242e-19)
(0.231705 -0.301634 1.37868e-19)
(0.366936 -0.378284 1.20122e-19)
(0.476755 -0.402949 -1.11152e-19)
(0.571974 -0.393216 -1.98537e-19)
(0.647969 -0.365284 -5.28043e-20)
(0.711752 -0.32843 -9.00733e-20)
(0.0935875 -0.146963 1.54284e-19)
(0.241793 -0.30812 1.61937e-19)
(0.379063 -0.387198 -9.10313e-20)
(0.489392 -0.413138 -1.03215e-19)
(0.584068 -0.403774 6.90621e-20)
(0.6591 -0.375552 1.92065e-19)
(0.721689 -0.338 2.08619e-20)
(0.0986568 -0.149449 3.65556e-19)
(0.252009 -0.314063 -1.97925e-19)
(0.39138 -0.395498 1.46796e-19)
(0.502265 -0.422735 2.99447e-19)
(0.596419 -0.413812 1.05712e-19)
(0.670493 -0.385383 -4.62145e-20)
(0.731878 -0.347212 1.06592e-20)
(0.103759 -0.151645 -1.37573e-19)
(0.262329 -0.319455 4.35642e-20)
(0.403861 -0.403173 -2.93609e-20)
(0.515345 -0.431728 -2.46834e-19)
(0.609003 -0.423318 -7.78826e-20)
(0.682128 -0.394767 3.1238e-19)
(0.742305 -0.356056 -1.76137e-19)
(0.108881 -0.15355 -4.39257e-21)
(0.272727 -0.32429 -7.79726e-20)
(0.416475 -0.410215 -1.64788e-19)
(0.528608 -0.440107 8.78578e-20)
(0.621799 -0.432282 2.98608e-19)
(0.693988 -0.403691 -1.62925e-19)
(0.752955 -0.364523 3.6392e-19)
(0.114008 -0.155163 -2.18391e-19)
(0.283176 -0.328563 2.74828e-20)
(0.429196 -0.416614 1.14191e-19)
(0.542026 -0.447861 1.51795e-19)
(0.634784 -0.440693 -1.49558e-19)
(0.706054 -0.412148 1.49952e-19)
(0.763814 -0.372605 -1.5504e-19)
(0.119126 -0.156482 1.7248e-19)
(0.293651 -0.332271 8.52291e-20)
(0.441993 -0.422365 7.84376e-20)
(0.555571 -0.454982 -2.91573e-19)
(0.647933 -0.448542 -1.66932e-19)
(0.718307 -0.420127 -2.05999e-19)
(0.774866 -0.380294 -9.52355e-20)
(0.124221 -0.157508 1.39222e-19)
(0.304126 -0.33541 -3.58235e-20)
(0.454838 -0.427461 -2.28973e-20)
(0.569215 -0.461461 1.00836e-19)
(0.661223 -0.455819 1.05504e-19)
(0.730728 -0.427621 5.1317e-20)
(0.786097 -0.387582 -1.22669e-19)
(0.829157 -0.344295 -1.24713e-19)
(0.129279 -0.158242 -1.03201e-20)
(0.314573 -0.337981 9.20112e-22)
(0.4677 -0.431898 -1.27374e-19)
(0.58293 -0.467293 1.6668e-19)
(0.67463 -0.462518 -1.0691e-19)
(0.743295 -0.434622 -1.38706e-19)
(0.79749 -0.394462 8.59115e-20)
(0.839321 -0.350757 -3.61309e-20)
(0.134288 -0.158686 -3.55149e-19)
(0.324968 -0.339982 8.59065e-20)
(0.480551 -0.435674 1.9112e-19)
(0.596688 -0.472471 -1.67628e-19)
(0.688128 -0.46863 8.37442e-20)
(0.755989 -0.441121 2.97941e-20)
(0.809029 -0.400928 -2.1497e-20)
(0.849637 -0.356879 -1.6402e-20)
(0.139232 -0.158842 2.6762e-19)
(0.335284 -0.341417 -2.63848e-20)
(0.493361 -0.438786 -1.13683e-19)
(0.61046 -0.476991 1.04575e-19)
(0.701692 -0.474151 9.58061e-20)
(0.768788 -0.447113 1.53837e-19)
(0.820697 -0.406973 7.62194e-20)
(0.860093 -0.362655 1.89143e-19)
(0.144099 -0.158714 -2.12348e-19)
(0.345496 -0.342287 -4.77167e-20)
(0.506099 -0.441236 -8.95237e-20)
(0.624217 -0.48085 -8.1348e-20)
(0.715297 -0.479074 -2.56458e-19)
(0.781672 -0.452593 -1.26723e-19)
(0.832478 -0.412591 2.59795e-20)
(0.870674 -0.368079 -7.31104e-20)
(0.148876 -0.158305 2.39477e-19)
(0.355577 -0.342597 -4.99388e-21)
(0.518737 -0.443023 1.06388e-19)
(0.637929 -0.484046 -8.11907e-21)
(0.728917 -0.483395 2.96726e-19)
(0.794619 -0.457554 -1.4872e-20)
(0.844354 -0.417778 -2.14961e-20)
(0.881368 -0.373149 1.78162e-20)
(0.153549 -0.15762 -1.8002e-19)
(0.365502 -0.342352 8.99502e-20)
(0.531245 -0.444151 -1.03372e-20)
(0.651568 -0.486579 1.08428e-19)
(0.742527 -0.487112 -3.1669e-19)
(0.807608 -0.461992 -1.15822e-19)
(0.856308 -0.422529 2.03853e-19)
(0.892161 -0.377859 5.08227e-20)
(0.920155 -0.333075 9.09077e-21)
(0.158107 -0.156664 -3.68825e-20)
(0.375248 -0.341559 -1.30737e-19)
(0.543593 -0.444623 4.28609e-20)
(0.665105 -0.488448 -5.11615e-20)
(0.7561 -0.490221 1.17406e-19)
(0.820616 -0.465903 5.08626e-20)
(0.868323 -0.42684 -1.43795e-19)
(0.903038 -0.382205 -1.44039e-20)
(0.929852 -0.337225 -7.20192e-20)
(0.162539 -0.155444 1.60634e-19)
(0.384789 -0.340226 2.76176e-20)
(0.555753 -0.444444 -4.29967e-20)
(0.678509 -0.489655 3.83226e-20)
(0.769609 -0.492722 6.01574e-20)
(0.833621 -0.469284 1.34867e-19)
(0.88038 -0.430706 1.32052e-19)
(0.913986 -0.386184 -1.32981e-19)
(0.939633 -0.341074 -4.84085e-20)
(0.166832 -0.153968 -1.04277e-19)
(0.394103 -0.338362 1.90323e-20)
(0.567696 -0.443621 -7.29616e-20)
(0.691753 -0.490203 -8.72583e-20)
(0.783028 -0.494614 -8.55209e-20)
(0.8466 -0.472133 -5.86079e-20)
(0.892461 -0.434124 -1.77189e-19)
(0.924991 -0.389793 8.91627e-20)
(0.949489 -0.344617 1.21484e-20)
(0.170975 -0.15224 5.79214e-20)
(0.403165 -0.335977 3.85539e-21)
(0.579395 -0.442162 9.14269e-20)
(0.704808 -0.490096 9.90412e-21)
(0.796331 -0.495896 -4.45434e-20)
(0.85953 -0.474448 5.88702e-21)
(0.904547 -0.437093 2.54811e-20)
(0.936037 -0.393029 1.05938e-19)
(0.959408 -0.347853 3.20645e-20)
(0.174957 -0.150269 -7.37031e-20)
(0.411953 -0.333082 1.97016e-20)
(0.59082 -0.440076 -2.51419e-20)
(0.717643 -0.489339 -1.47093e-20)
(0.809492 -0.496571 1.33707e-19)
(0.87239 -0.476228 7.72718e-20)
(0.91662 -0.43961 -1.45277e-20)
(0.947111 -0.39589 -7.13223e-20)
(0.969379 -0.350779 3.86959e-20)
(0.985974 -0.307904 -2.97317e-20)
(0.178768 -0.148062 4.61476e-20)
(0.420445 -0.32969 -3.72449e-20)
(0.601945 -0.437372 3.22008e-20)
(0.730232 -0.487938 5.92935e-20)
(0.822482 -0.496642 -5.39742e-20)
(0.885155 -0.477473 -7.99212e-20)
(0.928662 -0.441672 -4.53353e-20)
(0.958196 -0.398373 -6.29129e-21)
(0.979389 -0.353394 -6.86634e-21)
(0.994926 -0.310444 2.2344e-19)
(0.182397 -0.14563 2.23212e-20)
(0.428619 -0.325814 5.1257e-20)
(0.612742 -0.434062 -1.38433e-20)
(0.742545 -0.485901 -3.93559e-20)
(0.835277 -0.49611 -3.35263e-20)
(0.897802 -0.478182 -1.1171e-20)
(0.940652 -0.443279 1.20704e-19)
(0.969278 -0.400477 1.42754e-20)
(0.989427 -0.355696 1.89981e-20)
(1.00392 -0.312724 -5.71539e-20)
(0.185836 -0.142981 -1.48206e-20)
(0.436456 -0.321469 -9.57521e-21)
(0.623187 -0.43016 -1.19742e-20)
(0.754554 -0.483235 -3.58482e-21)
(0.847849 -0.49498 3.27012e-20)
(0.910308 -0.478358 5.51911e-20)
(0.952571 -0.444431 -1.40075e-19)
(0.980341 -0.402201 1.51009e-20)
(0.999481 -0.357684 5.00072e-20)
(1.01296 -0.314743 -2.95456e-21)
(0.189076 -0.140124 -2.28512e-20)
(0.443936 -0.31667 -2.16606e-20)
(0.633253 -0.425678 -1.66771e-20)
(0.766233 -0.479952 -1.06778e-20)
(0.860172 -0.493258 -3.10287e-20)
(0.92265 -0.478001 -1.40289e-20)
(0.9644 -0.445126 5.1093e-20)
(0.99137 -0.403544 -6.46064e-20)
(1.00954 -0.359356 -2.43732e-20)
(1.02202 -0.316501 -4.80628e-20)
(1.03125 -0.276837 2.17598e-20)
(0.192109 -0.137072 -6.1768e-21)
(0.451041 -0.311435 8.54204e-21)
(0.642916 -0.420633 9.11618e-21)
(0.777555 -0.476062 3.20268e-20)
(0.872219 -0.490951 2.67253e-20)
(0.934804 -0.477116 -1.3885e-20)
(0.976119 -0.445366 3.26635e-20)
(1.00235 -0.404504 5.73538e-21)
(1.01959 -0.360712 -9.64728e-21)
(1.0311 -0.317997 9.02693e-20)
(1.03938 -0.278317 1.20293e-19)
(0.194928 -0.133833 -5.55235e-21)
(0.457752 -0.305779 -9.66484e-21)
(0.652153 -0.415041 -2.2697e-21)
(0.788493 -0.471577 -1.19932e-20)
(0.883966 -0.488064 8.91453e-21)
(0.946746 -0.475704 2.88177e-20)
(0.987709 -0.44515 -3.18445e-20)
(1.01326 -0.405083 -1.76343e-20)
(1.02962 -0.361752 -7.32749e-20)
(1.04018 -0.31923 -1.39007e-19)
(1.04754 -0.279578 -7.63935e-20)
(0.197526 -0.130419 2.04432e-20)
(0.464054 -0.299723 1.27192e-20)
(0.660941 -0.408918 -1.28938e-21)
(0.79902 -0.46651 1.92946e-21)
(0.895386 -0.484606 -2.16024e-20)
(0.958454 -0.47377 -2.59914e-20)
(0.999148 -0.444482 3.89734e-20)
(1.02409 -0.405279 -2.39585e-21)
(1.03961 -0.362474 4.27079e-20)
(1.04926 -0.320199 -8.38479e-21)
(1.05571 -0.280619 6.64621e-20)
(1.06015 -0.244654 7.00045e-20)
(0.199897 -0.126841 -9.82981e-21)
(0.469931 -0.293285 8.41376e-21)
(0.669258 -0.402284 2.08245e-20)
(0.809113 -0.460875 -1.0688e-20)
(0.906453 -0.480586 -8.93855e-21)
(0.969902 -0.471319 3.08921e-20)
(1.01042 -0.443362 -1.7527e-20)
(1.03482 -0.405094 1.712e-20)
(1.04956 -0.36288 -2.09983e-20)
(1.05833 -0.320906 -3.33852e-20)
(1.06389 -0.281441 -7.85438e-20)
(1.0675 -0.245471 -1.54004e-19)
(0.202035 -0.123112 -4.4125e-20)
(0.475368 -0.286485 1.46522e-20)
(0.677082 -0.395157 -7.72477e-21)
(0.818747 -0.454688 2.37578e-20)
(0.917143 -0.476014 -4.48423e-22)
(0.981069 -0.468356 -2.45551e-20)
(1.0215 -0.441793 3.32346e-20)
(1.04544 -0.404528 -8.43809e-21)
(1.05944 -0.362968 1.92694e-20)
(1.06738 -0.32135 8.46199e-20)
(1.07207 -0.282043 -3.75313e-20)
(1.07487 -0.246103 1.16049e-19)
(0.203936 -0.119242 1.93046e-20)
(0.480353 -0.279343 -7.5198e-20)
(0.684396 -0.387559 -1.5981e-20)
(0.827897 -0.447966 -8.65805e-21)
(0.92743 -0.470902 -5.11342e-21)
(0.99193 -0.464888 1.93771e-21)
(1.03237 -0.439778 -3.79256e-20)
(1.05592 -0.403582 -5.7541e-21)
(1.06926 -0.36274 7.91026e-22)
(1.07639 -0.321531 -1.02527e-21)
(1.08025 -0.282426 1.14644e-19)
(1.08224 -0.246551 -6.36316e-20)
(1.0832 -0.21414 -8.90611e-20)
(0.205595 -0.115245 4.5237e-20)
(0.484874 -0.271882 2.74666e-20)
(0.69118 -0.379511 -3.32948e-20)
(0.836543 -0.440725 -1.5029e-20)
(0.937292 -0.46526 -3.3016e-21)
(1.00246 -0.460922 -6.22822e-21)
(1.043 -0.437321 -9.49173e-21)
(1.06625 -0.402258 1.14109e-20)
(1.07899 -0.362195 -1.53635e-20)
(1.08537 -0.32145 -7.39048e-21)
(1.08841 -0.28259 -2.8886e-21)
(1.08961 -0.246814 -1.4248e-22)
(1.08985 -0.214419 5.18193e-20)
(0.20701 -0.111132 -3.99322e-20)
(0.488919 -0.264122 -2.17175e-20)
(0.697416 -0.371033 6.12151e-21)
(0.844661 -0.432984 -2.82124e-21)
(0.946703 -0.459102 1.7048e-20)
(1.01264 -0.456465 -3.06983e-21)
(1.05339 -0.434425 2.02731e-20)
(1.07642 -0.400558 1.94144e-22)
(1.08861 -0.361336 3.58837e-20)
(1.09428 -0.321107 1.11495e-20)
(1.09654 -0.282537 -4.37499e-20)
(1.09698 -0.246895 3.86287e-20)
(1.09651 -0.214542 8.04142e-21)
(1.09542 -0.185369 -7.64476e-20)
(0.208178 -0.106915 1.97147e-20)
(0.49248 -0.256086 -2.63239e-21)
(0.703089 -0.36215 4.85858e-20)
(0.85223 -0.424762 6.44476e-20)
(0.955642 -0.452442 -3.37179e-20)
(1.02245 -0.451526 5.11053e-21)
(1.0635 -0.431096 -7.32813e-21)
(1.0864 -0.398484 -1.6163e-21)
(1.09813 -0.360163 -2.63237e-20)
(1.10314 -0.320504 1.53142e-20)
(1.10465 -0.282266 -6.309e-20)
(1.10435 -0.246792 1.20679e-20)
(1.10317 -0.214511 -8.84683e-20)
(1.10146 -0.185349 3.58147e-20)
(0.209097 -0.102608 -3.62749e-20)
(0.495548 -0.247796 6.29082e-20)
(0.708184 -0.352886 4.8398e-22)
(0.859231 -0.41608 -5.00637e-22)
(0.964084 -0.445294 5.35757e-20)
(1.03186 -0.446115 1.34105e-20)
(1.07332 -0.427337 1.94696e-21)
(1.09619 -0.396038 7.00261e-21)
(1.10751 -0.358677 2.48235e-20)
(1.11191 -0.31964 -1.34979e-20)
(1.11272 -0.281778 4.50592e-20)
(1.11169 -0.246508 -6.78347e-20)
(1.10983 -0.214325 1.10439e-20)
(1.10751 -0.185197 -2.24665e-20)
(0.209766 -0.0982234 -1.53953e-20)
(0.498116 -0.239277 -9.09092e-20)
(0.712688 -0.343265 -5.81963e-20)
(0.865644 -0.406957 2.86533e-21)
(0.972009 -0.437673 9.93853e-23)
(1.04085 -0.440241 -8.6284e-21)
(1.08283 -0.423156 -4.49543e-21)
(1.10575 -0.393224 -3.27362e-21)
(1.11676 -0.35688 -1.2521e-20)
(1.12061 -0.318517 1.74006e-20)
(1.12074 -0.281075 -2.06345e-20)
(1.11901 -0.246043 5.84463e-20)
(1.11649 -0.213986 6.83835e-21)
(1.11356 -0.184915 -3.20271e-20)
(1.1104 -0.158524 6.84072e-20)
(0.210184 -0.093773 9.70573e-20)
(0.500179 -0.23055 7.3688e-20)
(0.716588 -0.333311 7.23711e-21)
(0.871452 -0.397418 -5.77196e-20)
(0.979395 -0.429596 -3.74417e-20)
(1.0494 -0.433915 3.46767e-21)
(1.092 -0.418558 3.56321e-21)
(1.11507 -0.390045 -1.38871e-21)
(1.12584 -0.354773 -1.06969e-20)
(1.1292 -0.317136 5.97199e-21)
(1.1287 -0.280157 -5.34377e-21)
(1.1263 -0.245398 -3.14449e-20)
(1.12313 -0.213496 2.60187e-20)
(1.11961 -0.184504 7.54515e-21)
(1.11593 -0.158146 -1.59625e-20)
(1.11204 -0.134143 1.33441e-20)
(0.210351 -0.0892698 1.69532e-20)
(0.501732 -0.221641 -6.06398e-20)
(0.719874 -0.323052 -4.95185e-21)
(0.876638 -0.387483 -9.23533e-22)
(0.986221 -0.421079 1.18399e-20)
(1.05748 -0.427148 2.33853e-20)
(1.10081 -0.41355 -3.67067e-21)
(1.12414 -0.386504 -7.13186e-21)
(1.13476 -0.352359 4.71019e-21)
(1.13769 -0.315498 -1.36689e-20)
(1.1366 -0.279026 1.34996e-20)
(1.13356 -0.244574 -6.90765e-21)
(1.12975 -0.212854 2.06121e-21)
(1.12566 -0.183965 -7.76133e-21)
(1.12146 -0.157658 -1.13478e-20)
(1.11714 -0.133675 9.65072e-22)
(0.21027 -0.0847261 -6.51902e-20)
(0.502772 -0.212573 3.90017e-20)
(0.722537 -0.312511 1.60953e-20)
(0.881188 -0.377177 6.11893e-21)
(0.992468 -0.412142 3.89441e-20)
(1.06508 -0.419954 -4.09338e-20)
(1.10925 -0.408139 1.13697e-20)
(1.13294 -0.382606 1.88318e-20)
(1.14348 -0.349639 1.52526e-21)
(1.14605 -0.313605 9.8491e-22)
(1.14442 -0.277682 -1.51515e-20)
(1.14077 -0.243573 -4.8237e-22)
(1.13635 -0.212063 2.17718e-20)
(1.13169 -0.183299 6.58365e-20)
(1.127 -0.157064 1.8405e-20)
(1.12226 -0.133116 -2.22416e-20)
(1.11756 -0.110875 -1.56651e-20)
(0.20994 -0.0801544 -5.7812e-20)
(0.503298 -0.203369 2.18788e-20)
(0.724568 -0.301717 -4.91389e-20)
(0.885086 -0.366523 1.25866e-20)
(0.998118 -0.402803 -3.12435e-20)
(1.07217 -0.412344 3.93511e-20)
(1.1173 -0.402334 -3.26197e-20)
(1.14144 -0.378355 -7.33797e-21)
(1.15201 -0.346617 -8.5785e-21)
(1.15428 -0.311457 -3.72972e-21)
(1.15216 -0.276127 1.71641e-20)
(1.14793 -0.242396 1.63029e-20)
(1.14293 -0.211123 -3.20265e-20)
(1.13771 -0.182507 3.15722e-21)
(1.13253 -0.156363 -1.95534e-20)
(1.12738 -0.132469 -2.98032e-21)
(1.12234 -0.110248 -2.2449e-20)
(0.209365 -0.075567 -1.87488e-20)
(0.50331 -0.194054 2.98462e-20)
(0.725962 -0.290697 6.07773e-20)
(0.888321 -0.355547 1.27679e-20)
(1.00315 -0.39308 -4.35532e-20)
(1.07874 -0.404333 -4.17599e-21)
(1.12492 -0.396142 1.17987e-20)
(1.14964 -0.373755 1.53052e-20)
(1.16032 -0.343293 3.43269e-22)
(1.16237 -0.309057 3.69555e-21)
(1.1598 -0.274362 -1.01904e-20)
(1.15503 -0.241043 -3.40423e-21)
(1.14946 -0.210037 -1.42279e-20)
(1.14372 -0.181591 -2.28973e-20)
(1.13805 -0.155557 1.93457e-20)
(1.1325 -0.131734 1.50721e-20)
(1.12712 -0.109552 7.23578e-21)
(1.12175 -0.0892391 -4.12258e-20)
(0.208548 -0.0709759 4.99564e-20)
(0.502807 -0.184651 -2.12593e-20)
(0.726713 -0.279476 1.74504e-20)
(0.89088 -0.344273 -8.40949e-21)
(1.00755 -0.382995 5.19178e-20)
(1.08476 -0.395934 -6.43597e-20)
(1.13211 -0.389573 1.3458e-20)
(1.1575 -0.368813 1.75278e-21)
(1.16839 -0.339673 -1.03063e-20)
(1.17029 -0.306407 7.51293e-22)
(1.16735 -0.272388 6.64821e-21)
(1.16207 -0.239517 -6.14395e-21)
(1.15596 -0.208804 2.70161e-20)
(1.14969 -0.180551 1.74027e-21)
(1.14357 -0.154648 1.0946e-20)
(1.13761 -0.130912 6.71051e-21)
(1.13191 -0.108785 1.35664e-20)
(1.1263 -0.0884937 -1.66684e-21)
(1.1211 -0.0683044 2.39775e-20)
(0.207492 -0.066393 -4.18564e-20)
(0.501794 -0.175185 -2.92142e-20)
(0.72682 -0.268084 -5.53988e-21)
(0.892754 -0.332728 -8.29583e-21)
(1.01131 -0.372568 6.73471e-20)
(1.09021 -0.387164 5.77074e-20)
(1.13884 -0.382637 7.20839e-21)
(1.16502 -0.363532 -1.7548e-20)
(1.17621 -0.335757 1.79048e-20)
(1.17805 -0.303507 -7.78154e-21)
(1.17478 -0.270206 -2.35964e-21)
(1.16904 -0.237817 1.64901e-22)
(1.16241 -0.207426 -5.30534e-21)
(1.15565 -0.17939 -1.01827e-21)
(1.14906 -0.153636 -4.68006e-20)
(1.14272 -0.130005 -3.00013e-22)
(1.1367 -0.107952 -1.26649e-20)
(1.13086 -0.0876955 -1.61525e-20)
(1.12546 -0.0675432 -1.56177e-20)
(1.12003 -0.0504929 -8.29587e-21)
(0.206202 -0.0618298 6.9393e-20)
(0.500273 -0.165679 9.91597e-21)
(0.726279 -0.256547 -2.09316e-20)
(0.893935 -0.320938 -2.70754e-20)
(1.0144 -0.361822 -7.63283e-20)
(1.09508 -0.378037 3.4507e-20)
(1.14509 -0.375343 1.98373e-20)
(1.17217 -0.35792 -3.78075e-22)
(1.18377 -0.33155 5.04452e-22)
(1.18562 -0.300359 1.16864e-20)
(1.18209 -0.267818 8.16471e-22)
(1.17593 -0.235946 7.10843e-21)
(1.16882 -0.205905 6.6001e-21)
(1.16156 -0.178108 -1.08864e-20)
(1.15454 -0.152522 6.35366e-21)
(1.14782 -0.129014 -2.7565e-22)
(1.14148 -0.107051 -2.44497e-20)
(1.13543 -0.0868461 3.29088e-21)
(1.12982 -0.0667524 3.00626e-20)
(1.12438 -0.0495991 -3.57597e-20)
(0.204682 -0.0572977 -8.67513e-20)
(0.498249 -0.156157 -5.56788e-20)
(0.72509 -0.244892 -1.1159e-21)
(0.894414 -0.30893 3.26598e-20)
(1.01681 -0.350777 -3.56731e-20)
(1.09935 -0.36857 -3.51405e-20)
(1.15084 -0.367702 1.35801e-20)
(1.17893 -0.351983 -9.64642e-21)
(1.19105 -0.327055 1.2395e-20)
(1.193 -0.296967 6.8715e-21)
(1.18926 -0.265225 -2.93358e-21)
(1.18273 -0.233905 -2.7965e-21)
(1.17516 -0.204242 -4.1286e-21)
(1.16744 -0.176706 6.81335e-21)
(1.15999 -0.151309 9.74653e-21)
(1.1529 -0.12794 -2.32454e-20)
(1.14626 -0.106086 1.7434e-20)
(1.13999 -0.085947 -1.10419e-20)
(1.1342 -0.0659335 -3.83534e-20)
(1.12874 -0.0486916 3.66291e-20)
(0.202937 -0.0528076 9.56389e-20)
(0.495729 -0.146641 1.30437e-19)
(0.723256 -0.233149 4.93227e-20)
(0.894187 -0.296731 -6.27626e-20)
(1.01853 -0.339458 -2.83438e-21)
(1.10299 -0.35878 2.01354e-20)
(1.15608 -0.359727 -5.75931e-20)
(1.18528 -0.345728 2.08499e-20)
(1.19802 -0.322275 -1.26636e-20)
(1.20016 -0.293331 -1.01395e-20)
(1.19629 -0.262428 3.69668e-21)
(1.18943 -0.231694 -1.47116e-21)
(1.18144 -0.202438 1.90724e-21)
(1.17328 -0.175186 -4.9955e-22)
(1.16541 -0.149997 2.87158e-21)
(1.15797 -0.126784 1.88301e-21)
(1.15102 -0.105056 6.82954e-21)
(1.14455 -0.085 8.16715e-21)
(1.13857 -0.0650883 -2.23115e-21)
(1.1331 -0.0477742 -1.3871e-20)
(0.200975 -0.0483702 -2.17648e-20)
(0.49272 -0.137154 -7.4305e-21)
(0.72078 -0.221344 2.28083e-20)
(0.893249 -0.284368 1.85188e-20)
(1.01956 -0.327887 3.066e-20)
(1.106 -0.348686 -3.71594e-20)
(1.16077 -0.351427 3.46173e-20)
(1.19121 -0.339161 -1.08752e-20)
(1.20468 -0.317215 1.41177e-20)
(1.2071 -0.289454 4.02283e-21)
(1.20317 -0.259429 -1.44858e-21)
(1.19603 -0.229315 4.70191e-21)
(1.18765 -0.200493 7.99404e-22)
(1.17907 -0.173549 -1.14454e-21)
(1.1708 -0.148587 -1.51068e-21)
(1.16301 -0.125548 1.3071e-20)
(1.15577 -0.103963 -5.08402e-22)
(1.14909 -0.0840063 -7.55504e-21)
(1.14294 -0.0642181 2.9833e-21)
(1.13746 -0.0468504 -1.95186e-20)
(0.198801 -0.0439957 -2.86559e-20)
(0.489231 -0.127719 -2.66768e-20)
(0.717664 -0.209505 -1.20407e-19)
(0.891599 -0.271869 7.50861e-20)
(1.01987 -0.316089 -1.70755e-21)
(1.10836 -0.338305 2.97137e-20)
(1.16492 -0.342818 -2.14654e-20)
(1.1967 -0.332291 7.615e-21)
(1.211 -0.311879 9.45715e-21)
(1.2138 -0.285337 -7.93864e-21)
(1.20988 -0.256229 -8.89566e-21)
(1.20251 -0.226769 -5.43843e-21)
(1.19378 -0.19841 -1.17976e-21)
(1.18481 -0.171796 5.9128e-22)
(1.17615 -0.147081 5.98475e-21)
(1.16802 -0.124232 -3.67424e-21)
(1.1605 -0.102808 3.94421e-21)
(1.15362 -0.0829673 -1.57066e-21)
(1.14731 -0.063324 6.06248e-21)
(1.1418 -0.0459236 2.03902e-20)
(0.196423 -0.039694 2.39735e-20)
(0.485272 -0.118357 -2.45604e-20)
(0.713917 -0.197658 1.27913e-19)
(0.889235 -0.259262 -1.24921e-19)
(1.01946 -0.304088 5.94043e-20)
(1.11005 -0.327656 -2.0744e-20)
(1.16848 -0.333911 -2.39428e-20)
(1.20172 -0.325125 4.93688e-21)
(1.21696 -0.306272 2.86208e-21)
(1.22024 -0.280984 -2.55034e-21)
(1.21641 -0.252829 1.74554e-20)
(1.20888 -0.224057 -1.72755e-21)
(1.19983 -0.196189 -3.85534e-22)
(1.19049 -0.169928 -4.06416e-22)
(1.18146 -0.145479 -7.12384e-21)
(1.173 -0.122838 -6.93154e-21)
(1.16521 -0.101592 -9.56979e-21)
(1.15814 -0.081884 2.71955e-21)
(1.15166 -0.0624072 5.03993e-21)
(0.193847 -0.0354744 5.44185e-20)
(0.480854 -0.109088 -3.23717e-20)
(0.709546 -0.185832 -2.74929e-20)
(0.886158 -0.246574 7.58886e-20)
(1.01833 -0.291908 -3.97541e-20)
(1.11106 -0.31676 -3.7877e-20)
(1.17146 -0.32472 -9.95793e-22)
(1.20625 -0.317673 -2.1839e-20)
(1.22256 -0.300397 -3.27684e-20)
(1.2264 -0.276397 1.87624e-21)
(1.22275 -0.249231 -1.57854e-20)
(1.21511 -0.22118 4.92181e-21)
(1.20579 -0.193831 -1.24409e-21)
(1.1961 -0.167946 -3.0426e-22)
(1.18672 -0.143782 2.37691e-21)
(1.17795 -0.121366 -2.17363e-21)
(1.16988 -0.100316 2.46268e-21)
(1.16262 -0.0807575 -1.07619e-21)
(1.15599 -0.0614683 5.0261e-22)
(0.191083 -0.031346 -6.15049e-20)
(0.475989 -0.099935 1.52858e-20)
(0.704559 -0.174051 7.19127e-21)
(0.88237 -0.233833 -1.84602e-21)
(1.01647 -0.279575 -1.43962e-20)
(1.11137 -0.305636 8.18613e-20)
(1.17382 -0.31526 2.09504e-20)
(1.21029 -0.309943 1.88814e-20)
(1.22776 -0.29426 2.20398e-20)
(1.23228 -0.271578 1.8027e-20)
(1.22889 -0.245435 1.04396e-20)
(1.2212 -0.218138 -3.20259e-21)
(1.21165 -0.191336 3.01204e-21)
(1.20165 -0.16585 1.33978e-23)
(1.19194 -0.141992 1.88461e-21)
(1.18286 -0.119818 4.4242e-21)
(1.17453 -0.0989804 1.80012e-22)
(1.16708 -0.0795886 4.47899e-21)
(1.16031 -0.0605077 1.96069e-21)
(0.188138 -0.0273172 4.33346e-20)
(0.47069 -0.0909161 2.78568e-20)
(0.698967 -0.162343 -6.75183e-20)
(0.877876 -0.221068 3.54733e-20)
(1.01387 -0.267115 -2.57794e-21)
(1.11098 -0.294306 -5.10524e-20)
(1.17556 -0.305545 -3.2486e-20)
(1.2138 -0.301945 -2.24618e-21)
(1.23256 -0.287868 -4.70492e-21)
(1.23786 -0.26653 -1.5472e-20)
(1.23481 -0.241444 -5.31321e-21)
(1.22714 -0.214934 2.00808e-21)
(1.21741 -0.188707 -8.14715e-22)
(1.20712 -0.163643 -7.41198e-23)
(1.19709 -0.140108 -6.24222e-22)
(1.18772 -0.118193 -8.83402e-22)
(1.17913 -0.0975855 1.37218e-21)
(1.17151 -0.0783777 -1.68641e-21)
(1.16459 -0.0595258 -4.11437e-21)
(0.185021 -0.0233959 -1.30328e-20)
(0.464971 -0.0820507 -3.3292e-20)
(0.692783 -0.150733 6.28652e-21)
(0.872681 -0.208305 -3.9167e-20)
(1.01053 -0.254553 8.93277e-21)
(1.10988 -0.28279 2.39263e-20)
(1.17665 -0.295592 1.73951e-20)
(1.21676 -0.293689 9.68363e-21)
(1.23692 -0.281224 -2.87474e-20)
(1.24311 -0.261256 -3.60594e-22)
(1.2405 -0.237259 2.04237e-22)
(1.23292 -0.211566 1.02733e-21)
(1.22306 -0.185942 -2.22614e-21)
(1.21251 -0.161324 -1.9503e-21)
(1.20219 -0.138132 6.95456e-23)
(1.19253 -0.116493 -4.60299e-22)
(1.1837 -0.0961318 7.62999e-22)
(1.17589 -0.0771253 9.49696e-22)
(1.16884 -0.0585224 -7.27474e-22)
(0.181742 -0.0195896 -9.57699e-22)
(0.458848 -0.073357 3.85275e-20)
(0.686019 -0.139245 8.17335e-21)
(0.866792 -0.195573 -9.73695e-21)
(1.00645 -0.241915 -3.63153e-20)
(1.10805 -0.27111 -3.84006e-21)
(1.17708 -0.285416 1.64598e-20)
(1.21917 -0.285185 -2.10942e-20)
(1.24084 -0.274336 2.68422e-20)
(1.24802 -0.25576 7.00643e-21)
(1.24594 -0.23288 3.30931e-21)
(1.23853 -0.208037 -2.57009e-21)
(1.22858 -0.183044 6.39517e-22)
(1.21782 -0.158893 1.19568e-21)
(1.20722 -0.136065 -9.36691e-22)
(1.19729 -0.114717 -3.84057e-23)
(1.18822 -0.0946196 2.15679e-22)
(1.18023 -0.0758315 2.05341e-22)
(1.17305 -0.0574973 2.30758e-21)
(0.178309 -0.0159053 -3.33175e-21)
(0.452337 -0.0648525 -2.21281e-20)
(0.678692 -0.127903 3.54235e-20)
(0.860219 -0.182897 1.02933e-20)
(1.00163 -0.229227 1.49624e-20)
(1.10548 -0.259289 -1.21031e-20)
(1.17684 -0.275034 -8.74681e-21)
(1.221 -0.276446 -2.13876e-21)
(1.24429 -0.26721 -6.98217e-21)
(1.25258 -0.250043 -1.26933e-20)
(1.25111 -0.22831 -5.26595e-21)
(1.24394 -0.204346 4.02638e-21)
(1.23397 -0.180011 1.32916e-21)
(1.22303 -0.156352 2.3312e-21)
(1.21218 -0.133906 2.1976e-22)
(1.202 -0.112867 1.56336e-22)
(1.19269 -0.0930489 5.71666e-22)
(1.18453 -0.0744963 -9.97674e-22)
(1.17721 -0.0564499 5.98608e-22)
(0.174733 -0.0123493 -9.64965e-21)
(0.445454 -0.0565536 -8.40662e-21)
(0.670816 -0.116732 -2.31241e-20)
(0.852973 -0.170306 8.218e-21)
(0.99608 -0.216516 7.36748e-21)
(1.10218 -0.247349 1.47226e-21)
(1.17591 -0.264464 3.75836e-21)
(1.22222 -0.267482 6.09024e-21)
(1.24725 -0.259853 2.03877e-21)
(1.25675 -0.24411 9.90293e-21)
(1.25601 -0.22355 3.15443e-21)
(1.24917 -0.200495 -1.73493e-21)
(1.23922 -0.176845 1.06451e-21)
(1.22814 -0.153701 -2.25365e-21)
(1.21707 -0.131656 6.10048e-22)
(1.20664 -0.110943 -2.38214e-22)
(1.19711 -0.0914198 -1.35298e-22)
(1.18877 -0.0731191 9.26372e-22)
(1.18132 -0.0553793 -7.41071e-23)
(0.171023 -0.00892733 9.16742e-21)
(0.438217 -0.0484759 5.00923e-21)
(0.66241 -0.105753 1.17574e-21)
(0.845064 -0.157825 -6.97082e-21)
(0.989793 -0.203807 1.13339e-21)
(1.09812 -0.235313 -3.73125e-21)
(1.17428 -0.253724 7.52425e-22)
(1.22284 -0.258306 3.16454e-21)
(1.2497 -0.252272 -3.84525e-21)
(1.26053 -0.237965 -3.18768e-21)
(1.26062 -0.218601 7.18543e-22)
(1.25418 -0.196483 -2.79525e-23)
(1.24433 -0.173546 -1.11484e-21)
(1.23315 -0.15094 8.47934e-22)
(1.22187 -0.129315 -1.51671e-22)
(1.21122 -0.108943 5.64834e-23)
(1.20147 -0.0897319 2.52599e-23)
(1.19296 -0.0716995 -1.99242e-22)
(1.18538 -0.0542844 -6.82711e-23)
(0.16719 -0.00564478 9.42752e-21)
(0.430645 -0.0406339 5.40249e-21)
(0.653493 -0.0949887 1.21877e-21)
(0.836509 -0.14548 -7.17698e-21)
(0.982778 -0.191127 1.16404e-21)
(1.09332 -0.223205 -4.21477e-21)
(1.17193 -0.242832 1.08696e-21)
(1.22281 -0.248931 3.47852e-21)
(1.25162 -0.244475 -4.27405e-21)
(1.26389 -0.231611 -3.42462e-21)
(1.26492 -0.213465 5.38351e-22)
(1.25896 -0.192311 8.72471e-23)
(1.24927 -0.170113 -1.37219e-21)
(1.23804 -0.148068 1.03305e-21)