0 	0.551757 	1.38778e-18 	-0.57631
0 	0.659416 	2.77556e-18 	-0.461236
0 	0.775694 	2.77556e-18 	-0.41481
0 	0.90128 	2.77556e-18 	-0.33782
