0.3536 	0.3536 	0 	0.0363143 	-0.0213692 	-2.43115e-19
0.390196 	0.390196 	0 	0.0298454 	-0.0184 	1.86691e-19
0.466318 	0.466318 	8.67362e-18 	0.130752 	-0.0565889 	1.74204e-19
0.548534 	0.548534 	2.25514e-17 	0.2581 	-0.0740241 	6.18108e-21
0.637332 	0.637332 	3.19189e-17 	0.392505 	-0.086701 	-2.97e-19
