-0.3536 	0.3536 	-9.02056e-18 	0.242407 	0.22127 	5.03053e-20
-0.390196 	0.390196 	-1.49133e-17 	0.230108 	0.223895 	-1.42105e-19
-0.466318 	0.466318 	-2.43897e-17 	0.489751 	0.418662 	-2.41252e-20
-0.548534 	0.548534 	-2.57828e-17 	0.668965 	0.478718 	1.12527e-21
-0.614278 	0.614278 	-5.55112e-18 	0.777687 	0.46713 	1.8273e-19
-0.660386 	0.660386 	-7.63278e-18 	0.803822 	0.473246 	3.11628e-20
