0.3536 	0.3536 	0 	-0.579001
0.390196 	0.390196 	0 	-0.568591
0.466318 	0.466318 	8.67362e-18 	-0.483902
0.548534 	0.548534 	2.25514e-17 	-0.455497
0.637332 	0.637332 	3.19189e-17 	-0.407233
