/*--------------------------------*- C++ -*----------------------------------*\
  =========                 |
  \\      /  F ield         | OpenFOAM: The Open Source CFD Toolbox
   \\    /   O peration     | Website:  https://openfoam.org
    \\  /    A nd           | Version:  7
     \\/     M anipulation  |
\*---------------------------------------------------------------------------*/
FoamFile
{
    version     2.0;
    format      ascii;
    class       volVectorField;
    location    "10";
    object      U;
}
// * * * * * * * * * * * * * * * * * * * * * * * * * * * * * * * * * * * * * //

dimensions      [0 1 -1 0 0 0 0];

internalField   nonuniform List<vector> 
42000
(
(-0.00177851 0.000225964 -6.39343e-21)
(-0.00439561 0.000123574 2.21401e-21)
(-0.00477689 -0.000153501 -8.26793e-22)
(-0.000726685 -0.000538352 -4.26272e-21)
(0.00754794 -0.000928216 -1.00083e-21)
(0.0197836 -0.00131582 4.44974e-21)
(0.0356048 -0.00167186 5.58806e-21)
(0.0544262 -0.00200009 -4.69834e-21)
(0.0758949 -0.00229385 6.50082e-21)
(0.0995471 -0.00255745 -1.8288e-21)
(0.12506 -0.00279095 -1.09488e-21)
(0.152161 -0.00299743 -2.08446e-22)
(0.180479 -0.00317863 -4.1538e-21)
(0.210047 -0.00333737 -3.70669e-21)
(0.240139 -0.0034734 1.00464e-21)
(0.271641 -0.00359922 3.10072e-21)
(0.302445 -0.00368683 -1.7895e-21)
(0.336014 -0.00383766 -3.83652e-21)
(0.366461 -0.00379035 -3.86338e-22)
(0.402145 -0.0043199 -1.71671e-21)
(-0.00178836 0.00067566 -6.2318e-21)
(-0.00435224 0.000367144 -1.20768e-20)
(-0.00463354 -0.000463817 -4.18861e-21)
(-0.000461963 -0.00161733 3.03095e-21)
(0.00795164 -0.00278537 -8.06405e-21)
(0.0203364 -0.00394635 -1.5981e-21)
(0.0363171 -0.00501246 2.14561e-21)
(0.0553065 -0.00599497 -9.04612e-21)
(0.0769524 -0.00687396 -3.92332e-21)
(0.100791 -0.00766236 3.83912e-21)
(0.1265 -0.00836036 -8.18195e-21)
(0.153807 -0.00897717 -4.02057e-21)
(0.182341 -0.00951809 3.58849e-21)
(0.212138 -0.00999147 1.13757e-20)
(0.242465 -0.0103969 7.28741e-21)
(0.274221 -0.0107711 -9.17517e-22)
(0.305268 -0.011032 3.4238e-21)
(0.339142 -0.0114789 1.09285e-20)
(0.369767 -0.0113397 -2.58202e-22)
(0.405957 -0.0129077 -8.23497e-22)
(-0.00180771 0.00111803 2.34295e-21)
(-0.00426492 0.000598252 6.69449e-21)
(-0.00434623 -0.000786872 -7.74156e-21)
(6.79607e-05 -0.00270699 1.11028e-20)
(0.00875929 -0.0046496 2.10807e-20)
(0.0214421 -0.00657959 -1.67516e-20)
(0.0377413 -0.00835079 -2.19807e-21)
(0.057066 -0.00998221 2.11395e-21)
(0.0790656 -0.0114407 -6.23312e-21)
(0.103276 -0.0127477 -1.92771e-20)
(0.129376 -0.0139037 -1.09132e-20)
(0.157094 -0.0149238 -4.05186e-21)
(0.186058 -0.0158169 1.02817e-20)
(0.216309 -0.0165967 -1.41517e-21)
(0.247104 -0.0172632 6.03102e-21)
(0.279364 -0.017875 6.4021e-21)
(0.310894 -0.0183016 -7.32997e-21)
(0.345371 -0.0190257 -8.87854e-21)
(0.376349 -0.0187983 2.93999e-21)
(0.413537 -0.0213381 1.16362e-20)
(-0.00183589 0.00154825 -2.58142e-20)
(-0.00413245 0.000808684 -8.11265e-21)
(-0.00391376 -0.00113105 4.06652e-20)
(0.000864056 -0.00381435 -1.3579e-20)
(0.00997141 -0.00652552 -3.46878e-20)
(0.0231004 -0.00921726 3.78866e-20)
(0.0398763 -0.0116852 -2.59222e-20)
(0.0597027 -0.0139566 -9.82911e-21)
(0.082231 -0.0159849 6.13728e-21)
(0.106997 -0.0178004 1.55103e-20)
(0.13368 -0.0194034 1.66557e-20)
(0.162011 -0.0208151 -1.07595e-20)
(0.191616 -0.0220482 1.05309e-20)
(0.222541 -0.0231206 -2.40296e-20)
(0.254031 -0.0240344 -7.44695e-21)
(0.287039 -0.0248663 -5.74093e-21)
(0.319281 -0.0254461 1.2132e-20)
(0.354647 -0.0264161 2.12512e-21)
(0.386144 -0.0261071 -7.43508e-21)
(0.424797 -0.0295095 -9.74395e-21)
(-0.00187187 0.00196156 3.57864e-20)
(-0.00395305 0.000990361 -2.17136e-20)
(-0.00333434 -0.00150458 -5.34326e-20)
(0.00192777 -0.00494623 4.15631e-20)
(0.0115888 -0.00841758 2.5993e-20)
(0.0253112 -0.0118609 -2.99038e-20)
(0.0427207 -0.0150141 2.90584e-20)
(0.0632134 -0.017913 -1.63074e-20)
(0.0864434 -0.0204977 1.782e-20)
(0.111945 -0.0228074 5.71705e-21)
(0.139401 -0.0248423 -9.3275e-22)
(0.168542 -0.0266293 1.41099e-20)
(0.198994 -0.0281851 -1.8304e-20)
(0.230807 -0.0295312 1.2672e-20)
(0.26321 -0.0306732 1.97334e-21)
(0.297196 -0.031701 -6.1129e-21)
(0.330369 -0.0324168 5.59566e-21)
(0.366891 -0.0335896 -1.50031e-20)
(0.399057 -0.0332088 -5.60964e-21)
(0.439607 -0.0373254 5.00063e-21)
(-0.00191429 0.00235331 2.04831e-20)
(-0.00372439 0.00113539 2.78097e-20)
(-0.00260558 -0.00191549 6.08896e-20)
(0.00326102 -0.00610923 -7.70825e-20)
(0.0136124 -0.01033 -7.38428e-20)
(0.0280742 -0.0145119 6.75236e-20)
(0.0462726 -0.0183354 -4.67559e-21)
(0.0675941 -0.0218457 5.28194e-20)
(0.0916959 -0.0249698 -3.21254e-20)
(0.118111 -0.0277553 4.68928e-20)
(0.146524 -0.0302028 1.65993e-20)
(0.176667 -0.0323445 -1.03071e-20)
(0.208162 -0.0342011 -2.35381e-20)
(0.241067 -0.0357967 -1.40353e-21)
(0.27459 -0.037143 -3.63857e-20)
(0.309771 -0.0383361 -5.41841e-21)
(0.344078 -0.0391662 8.18441e-21)
(0.381998 -0.0404884 9.84378e-21)
(0.414969 -0.0400487 1.83868e-20)
(0.457797 -0.044696 -4.38382e-21)
(-0.00196149 0.00271898 -5.9836e-20)
(-0.00344355 0.00123614 -1.56651e-20)
(-0.00172454 -0.00237148 -4.54686e-21)
(0.00486618 -0.00730969 4.6548e-20)
(0.0160435 -0.0122667 9.10024e-20)
(0.0313891 -0.0171712 -4.72531e-20)
(0.0505296 -0.021647 -3.34298e-20)
(0.0728396 -0.0257493 1.31679e-20)
(0.0979797 -0.0293917 5.9694e-20)
(0.125481 -0.0326311 -5.09531e-20)
(0.15503 -0.0354676 -3.86073e-20)
(0.186358 -0.0379388 -2.62292e-20)
(0.219085 -0.04007 3.62209e-20)
(0.253276 -0.0418862 3.15459e-20)
(0.288112 -0.0434079 4.70063e-20)
(0.324686 -0.0447299 4.07296e-20)
(0.360308 -0.0456489 -3.16555e-20)
(0.39984 -0.0470571 1.71158e-20)
(0.433729 -0.0465752 -1.13601e-20)
(0.479157 -0.0515401 -2.37684e-21)
(-0.00201146 0.00305422 1.09337e-20)
(-0.00310706 0.00128525 3.21071e-20)
(-0.000687704 -0.0028799 -6.87843e-20)
(0.00674609 -0.00855359 -3.13584e-21)
(0.0188836 -0.0142314 -2.35219e-20)
(0.0352556 -0.0198397 -7.59945e-20)
(0.0554886 -0.0249464 5.38603e-20)
(0.0789436 -0.0296177 3.12934e-21)
(0.105284 -0.033754 -7.3992e-20)
(0.134039 -0.0374212 -6.33758e-21)
(0.164895 -0.0406193 1.63675e-20)
(0.197585 -0.0433909 5.30271e-20)
(0.231722 -0.0457659 -2.56615e-20)
(0.267377 -0.0477693 -2.3801e-20)
(0.303703 -0.0494331 -2.11904e-20)
(0.341847 -0.0508425 -1.63989e-20)
(0.378945 -0.0518212 3.25852e-20)
(0.420265 -0.0532438 -7.03008e-21)
(0.455163 -0.0527402 -2.70873e-20)
(0.503444 -0.0577865 2.20027e-20)
(-0.00206192 0.00335487 3.495e-20)
(-0.00271092 0.00127572 -2.96025e-20)
(0.000508974 -0.00344771 -3.46634e-20)
(0.00890398 -0.00984645 -2.57706e-20)
(0.0221344 -0.016227 -1.58361e-21)
(0.0396732 -0.0225177 3.23625e-20)
(0.0611464 -0.0282308 -1.54109e-20)
(0.0858991 -0.0334448 -9.86761e-20)
(0.113598 -0.0380469 7.24289e-20)
(0.143768 -0.0421122 7.29189e-20)
(0.176095 -0.0456406 1.22606e-20)
(0.210311 -0.0486793 -3.22956e-20)
(0.246024 -0.0512635 -1.15717e-20)
(0.283307 -0.0534165 -7.01448e-21)
(0.321279 -0.0551852 -2.50696e-20)
(0.361148 -0.0566359 -3.3475e-20)
(0.399855 -0.057642 -3.77533e-20)
(0.443103 -0.059001 4.32923e-21)
(0.479076 -0.0584993 1.28721e-20)
(0.530384 -0.0633753 -3.18264e-20)
(-0.00211028 0.00361697 2.10951e-20)
(-0.00225064 0.00120094 8.5647e-20)
(0.00187006 -0.00408145 1.27835e-19)
(0.0113435 -0.0111933 8.26779e-20)
(0.0257977 -0.0182565 3.3729e-21)
(0.0446412 -0.025205 2.45782e-20)
(0.0674991 -0.0314969 3.41191e-20)
(0.0936979 -0.037224 -1.98424e-20)
(0.122907 -0.0422602 -9.283e-20)
(0.154645 -0.0466905 -9.2671e-20)
(0.188599 -0.0505141 -2.51391e-21)
(0.224496 -0.0537831 7.69366e-20)
(0.261935 -0.056538 -1.65977e-20)
(0.300993 -0.0587992 8.7655e-21)
(0.340749 -0.060632 -2.26679e-20)
(0.382468 -0.0620742 5.11066e-20)
(0.42289 -0.0630731 1.48915e-20)
(0.468163 -0.0642854 -3.26966e-21)
(0.50525 -0.0638123 4.30366e-20)
(0.559675 -0.0682589 8.55437e-21)
(-0.00215369 0.00383681 -3.71042e-20)
(-0.00172123 0.00105473 -9.59428e-20)
(0.0034006 -0.00478711 -2.56428e-20)
(0.0140688 -0.0125987 -1.11558e-19)
(0.0298758 -0.0203219 2.78381e-20)
(0.050159 -0.0279012 -6.25309e-20)
(0.0745421 -0.0347411 -6.78597e-20)
(0.102331 -0.0409484 2.73024e-20)
(0.133196 -0.0463839 3.46029e-20)
(0.166649 -0.0511423 -1.80062e-20)
(0.202374 -0.0552227 -8.88473e-20)
(0.240094 -0.0586815 -9.98405e-20)
(0.279396 -0.0615653 4.79608e-20)
(0.320354 -0.0638899 -1.22346e-20)
(0.362009 -0.0657431 -7.98483e-21)
(0.405677 -0.067124 -8.00135e-20)
(0.447889 -0.0680792 -8.2329e-22)
(0.49524 -0.069059 -1.74458e-20)
(0.533452 -0.0686431 4.17455e-21)
(0.590995 -0.0724024 -4.86535e-21)
(-0.00218903 0.00401097 -9.32762e-20)
(-0.00111723 0.000831383 -3.55762e-20)
(0.00510614 -0.00557011 3.87003e-20)
(0.0170841 -0.0140665 8.12408e-20)
(0.0343707 -0.0224248 -7.32652e-20)
(0.0562257 -0.030605 9.81737e-20)
(0.0822707 -0.0379593 1.26602e-19)
(0.111787 -0.0446107 3.19845e-20)
(0.144448 -0.0504071 -1.71993e-20)
(0.179753 -0.0554537 1.28542e-19)
(0.217384 -0.059749 1.66246e-19)
(0.257055 -0.0633541 1.2324e-19)
(0.298338 -0.066322 -4.96745e-20)
(0.341305 -0.0686625 -8.75765e-22)
(0.384949 -0.07049 1.1611e-20)
(0.430633 -0.0717548 7.21541e-20)
(0.474679 -0.0726285 1.21174e-20)
(0.524113 -0.0732893 2.01118e-20)
(0.563435 -0.0729602 -4.08859e-20)
(0.624004 -0.0757841 2.38855e-20)
(-0.00221297 0.00413627 8.58881e-20)
(-0.000432776 0.000525713 5.74723e-20)
(0.00699262 -0.00643526 -9.38352e-20)
(0.0203944 -0.0156001 -4.55425e-20)
(0.0392849 -0.0245661 5.61986e-20)
(0.0628405 -0.0333148 -5.81934e-20)
(0.0906794 -0.0411466 -2.51529e-20)
(0.122056 -0.0482031 2.43155e-20)
(0.156643 -0.0543191 3.14098e-20)
(0.193929 -0.0596106 -3.57979e-20)
(0.233589 -0.0640762 -5.40351e-20)
(0.275324 -0.0677809 -6.50429e-20)
(0.318691 -0.0707854 2.72228e-20)
(0.36375 -0.0730921 -1.52271e-20)
(0.409447 -0.0748459 3.59831e-20)
(0.457184 -0.0759391 -9.20251e-21)
(0.503076 -0.076693 -9.28213e-21)
(0.554552 -0.07695 -1.97792e-20)
(0.594941 -0.0767366 3.21031e-20)
(0.658355 -0.0783955 -3.83218e-20)
(-0.00222186 0.00420966 -7.87341e-20)
(0.000338372 0.000133281 9.82902e-20)
(0.0090664 -0.0073867 2.78998e-20)
(0.0240045 -0.0172019 3.64498e-20)
(0.0446208 -0.0267463 1.28837e-19)
(0.0700022 -0.0360281 -6.14927e-20)
(0.0997621 -0.044298 -1.56753e-19)
(0.133126 -0.0517173 2.99972e-21)
(0.169763 -0.0581086 -5.64268e-21)
(0.209148 -0.063599 -1.19214e-19)
(0.250946 -0.0681872 -6.32942e-20)
(0.294843 -0.0719426 -4.29003e-20)
(0.340376 -0.074934 -1.77246e-20)
(0.387589 -0.0771556 2.75144e-21)
(0.435378 -0.0787867 -7.00818e-20)
(0.48517 -0.0796527 5.51117e-22)
(0.532887 -0.0802485 -4.59929e-21)
(0.586315 -0.080021 4.72398e-20)
(0.627703 -0.0799499 -8.80119e-21)
(0.693692 -0.0802407 3.92583e-20)
(-0.00221173 0.00422805 4.70051e-20)
(0.00120274 -0.000349416 -7.26511e-20)
(0.0113342 -0.00842786 9.70894e-21)
(0.0279199 -0.0188738 -1.6038e-19)
(0.0503811 -0.0289647 -1.20345e-19)
(0.0777094 -0.0387418 1.36199e-19)
(0.109512 -0.0474074 -2.24307e-20)
(0.144983 -0.0551447 8.83055e-20)
(0.183785 -0.061764 1.44122e-20)
(0.225377 -0.0674045 1.06837e-19)
(0.26941 -0.0720652 7.85437e-20)
(0.315551 -0.0758202 -1.83779e-20)
(0.363312 -0.0787472 3.26213e-20)
(0.412716 -0.0808314 1.01547e-19)
(0.462608 -0.0822903 2.14204e-20)
(0.514426 -0.0828749 2.66186e-22)
(0.563911 -0.0832751 3.02462e-20)
(0.619159 -0.0824891 -6.40961e-20)
(0.661452 -0.0825829 4.64103e-20)
(0.729664 -0.0813357 -3.26992e-20)
(-0.00217864 0.00418989 5.60304e-20)
(0.00216756 -0.000926302 2.88103e-20)
(0.0138029 -0.00956146 -2.76104e-20)
(0.032146 -0.0206168 1.93083e-19)
(0.0565682 -0.0312202 -1.06394e-19)
(0.0859607 -0.0414523 -1.0278e-19)
(0.119923 -0.0504685 7.12096e-20)
(0.157612 -0.0584759 -1.04559e-20)
(0.198686 -0.0652734 6.52644e-20)
(0.24258 -0.0710128 -7.06441e-20)
(0.28893 -0.0756937 2.75032e-20)
(0.33738 -0.0793954 3.67285e-20)
(0.387412 -0.0822055 1.25087e-19)
(0.43902 -0.0840998 -8.88606e-20)
(0.490997 -0.0853374 -5.65684e-20)
(0.54478 -0.0855887 -5.04878e-20)
(0.595945 -0.0857576 -2.65513e-20)
(0.652834 -0.0843478 8.4115e-20)
(0.695915 -0.0846236 -6.42801e-20)
(0.765925 -0.0817074 -3.52393e-21)
(-0.00211881 0.00409393 -9.75965e-20)
(0.00324019 -0.00160076 -4.68333e-20)
(0.0164801 -0.0107894 1.03287e-19)
(0.0366887 -0.0224312 -2.55804e-20)
(0.0631849 -0.0335107 1.03664e-19)
(0.0947541 -0.0441549 1.46565e-19)
(0.130987 -0.0534739 -6.22546e-20)
(0.170999 -0.0617013 -7.02062e-20)
(0.214441 -0.0686246 -2.03839e-19)
(0.260721 -0.0744094 1.48416e-19)
(0.309456 -0.0790565 -1.87401e-20)
(0.36026 -0.0826508 -1.06148e-20)
(0.412584 -0.0852908 -7.6466e-20)
(0.466385 -0.0869431 4.56042e-20)
(0.520401 -0.0879117 4.25696e-20)
(0.576053 -0.087781 2.81507e-20)
(0.62878 -0.087685 1.03679e-20)
(0.687091 -0.0855974 -5.5532e-20)
(0.730823 -0.0860656 -4.45874e-21)
(0.802145 -0.0813925 3.81584e-20)
(-0.00202786 0.00393818 -4.44791e-20)
(0.00442799 -0.00237441 -3.43178e-20)
(0.0193732 -0.0121127 -1.29518e-19)
(0.0415537 -0.0243163 -1.79373e-20)
(0.0702336 -0.0358333 7.89518e-20)
(0.104088 -0.0468443 -1.20391e-19)
(0.142695 -0.0564158 1.92414e-20)
(0.185128 -0.0648105 7.72889e-20)
(0.231024 -0.0718051 1.52298e-19)
(0.279761 -0.0775799 -1.51349e-19)
(0.330934 -0.0821376 -5.23433e-20)
(0.38412 -0.0855697 7.49766e-20)
(0.438734 -0.0879865 1.7081e-20)
(0.494691 -0.0893459 2.12352e-20)
(0.550674 -0.0899994 3.58618e-20)
(0.608069 -0.089443 -2.87611e-21)
(0.662207 -0.0890515 -3.98158e-20)
(0.721685 -0.0862451 -1.62212e-20)
(0.765909 -0.0869084 -1.57419e-20)
(0.838011 -0.0804361 -5.87139e-21)
(-0.00190135 0.00372128 2.18665e-19)
(0.00573862 -0.00324844 -7.02146e-20)
(0.02249 -0.0135316 1.69593e-19)
(0.046747 -0.0262705 -8.25935e-21)
(0.0777169 -0.0381842 -9.05922e-20)
(0.113959 -0.0495143 2.1266e-21)
(0.155038 -0.0592858 6.33131e-20)
(0.19998 -0.0677926 -1.11162e-20)
(0.248405 -0.0748018 -1.08491e-19)
(0.299658 -0.0805097 1.10303e-20)
(0.353305 -0.0849216 -2.04047e-21)
(0.408883 -0.0881362 -7.02979e-21)
(0.465765 -0.0902774 -1.91965e-19)
(0.523815 -0.0912949 -4.52696e-20)
(0.581663 -0.0915903 -4.48027e-20)
(0.640646 -0.0905698 2.9606e-20)
(0.696016 -0.089856 -1.40747e-20)
(0.756375 -0.0863047 6.27285e-20)
(0.800916 -0.0871576 3.28731e-20)
(0.87323 -0.0788901 -2.9424e-20)
(-0.00173481 0.00344246 -1.36973e-19)
(0.00718001 -0.00422349 2.13092e-19)
(0.0258385 -0.0150455 -2.06102e-19)
(0.0522748 -0.0282913 1.36935e-22)
(0.0856371 -0.0405587 -2.02606e-20)
(0.124365 -0.052158 -8.52211e-20)
(0.168007 -0.0620744 1.30244e-21)
(0.215537 -0.0706364 9.56867e-20)
(0.266557 -0.0776018 1.96131e-19)
(0.320371 -0.0831845 -1.0246e-19)
(0.376511 -0.0873933 6.58279e-20)
(0.43447 -0.0903357 -2.93437e-20)
(0.493574 -0.0921501 1.32149e-19)
(0.553631 -0.0927795 -1.70992e-20)
(0.613218 -0.0926772 -2.15953e-20)
(0.673604 -0.0911609 -6.21191e-20)
(0.730003 -0.0901025 3.77046e-20)
(0.790931 -0.0857959 -2.9208e-20)
(0.835597 -0.0868256 -6.70051e-20)
(0.90754 -0.0768115 4.77324e-20)
(-0.0015237 0.00310133 -5.68205e-20)
(0.00876016 -0.00529946 -2.53584e-19)
(0.0294266 -0.0166529 1.88128e-19)
(0.0581428 -0.0303753 1.47666e-19)
(0.0939962 -0.0429513 1.22006e-19)
(0.135302 -0.0547675 1.16405e-19)
(0.18159 -0.0647718 2.0718e-19)
(0.23178 -0.0733299 -2.76445e-19)
(0.285447 -0.0801917 -1.58518e-19)
(0.341852 -0.0855901 4.32037e-20)
(0.40049 -0.0895384 -2.72258e-20)
(0.4608 -0.0921546 -9.36606e-20)
(0.52206 -0.0935928 -6.94524e-20)
(0.584011 -0.0937915 3.20495e-21)
(0.645185 -0.0932564 5.79571e-20)
(0.706766 -0.0912201 3.89325e-20)
(0.763966 -0.0897997 2.35837e-20)
(0.825131 -0.0847443 -3.30376e-20)
(0.869718 -0.0859308 7.33584e-20)
(0.940706 -0.0742613 -4.41562e-20)
(-0.0012634 0.00269783 1.4684e-19)
(0.0104872 -0.0064755 1.90055e-19)
(0.0332624 -0.0183513 -7.66388e-20)
(0.0643572 -0.0325182 -1.76252e-19)
(0.102796 -0.0453554 -1.28742e-19)
(0.146767 -0.0573342 -7.38811e-20)
(0.195778 -0.0673673 -1.73351e-19)
(0.248687 -0.0758608 5.11995e-20)
(0.305042 -0.0825578 6.17794e-20)
(0.364055 -0.0877122 -3.07053e-20)
(0.425177 -0.0913431 2.82151e-20)
(0.487789 -0.0935806 1.51201e-21)
(0.551115 -0.094596 1.47808e-19)
(0.614828 -0.0943255 -6.44122e-20)
(0.677413 -0.0933276 -2.86683e-20)
(0.739956 -0.0907553 2.801e-21)
(0.797711 -0.0889615 -2.76037e-20)
(0.858767 -0.0831803 8.60329e-21)
(0.903063 -0.0844983 2.98763e-20)
(0.972526 -0.0713024 -7.29248e-22)
(-0.000949287 0.00223232 -1.71255e-19)
(0.0123693 -0.00775 -1.51737e-19)
(0.0373539 -0.0201374 -2.00728e-19)
(0.0709235 -0.0347145 2.45938e-20)
(0.112039 -0.0477636 6.99901e-20)
(0.158756 -0.0598485 4.00548e-20)
(0.210557 -0.0698495 -1.23562e-19)
(0.266237 -0.0782162 1.14303e-19)
(0.325309 -0.0846866 -1.32235e-19)
(0.386932 -0.0895372 6.25161e-20)
(0.450506 -0.0927946 5.6615e-20)
(0.515352 -0.0946028 1.5555e-19)
(0.580634 -0.095152 2.42141e-20)
(0.64595 -0.0943789 6.23837e-20)
(0.709749 -0.0928942 -3.05441e-20)
(0.773003 -0.0897787 1.00832e-19)
(0.831052 -0.0876062 2.61807e-20)
(0.89165 -0.0811388 -4.20486e-20)
(0.935433 -0.0825592 -1.12943e-20)
(1.00283 -0.0679987 -1.20554e-20)
(-0.000576733 0.00170552 7.60914e-20)
(0.0144145 -0.00912061 -1.33616e-20)
(0.0417091 -0.0220069 6.3121e-20)
(0.0778475 -0.0369578 -5.21999e-20)
(0.121725 -0.0501673 3.35521e-20)
(0.171263 -0.0623 1.66726e-19)
(0.225914 -0.0722063 -1.06951e-19)
(0.284405 -0.080383 -2.96336e-20)
(0.346212 -0.0865643 1.96994e-19)
(0.410431 -0.0910517 -8.80125e-20)
(0.47641 -0.0938807 2.48336e-20)
(0.543401 -0.0952118 2.82633e-20)
(0.610508 -0.0952555 -1.85543e-19)
(0.677252 -0.093952 5.83444e-20)
(0.742047 -0.0919631 -2.8198e-20)
(0.805746 -0.0883063 -2.08134e-20)
(0.863813 -0.0857568 -3.63269e-20)
(0.923603 -0.0786581 3.5452e-20)
(0.966652 -0.0801501 -3.10573e-20)
(1.03149 -0.0644132 3.32676e-20)
(-0.000141115 0.00111852 1.19102e-19)
(0.016631 -0.0105842 2.89762e-19)
(0.0463357 -0.0239546 1.64506e-19)
(0.0851345 -0.039241 -2.73482e-21)
(0.131855 -0.0525573 -1.24941e-19)
(0.184282 -0.0646776 -6.9756e-20)
(0.241835 -0.0744252 1.87541e-19)
(0.303168 -0.0823477 -7.37938e-21)
(0.367712 -0.0881772 9.29919e-22)
(0.434499 -0.0922426 1.59398e-19)
(0.502817 -0.0945905 -9.11185e-20)
(0.571847 -0.0954 -1.01103e-19)
(0.64063 -0.0949034 1.58328e-19)
(0.708604 -0.093048 5.81339e-20)
(0.774162 -0.0905445 1.25892e-19)
(0.838027 -0.086358 -1.47593e-19)
(0.895832 -0.0834402 -8.5896e-21)
(0.954472 -0.0757795 5.08476e-20)
(0.996564 -0.0773124 6.8274e-20)
(1.05839 -0.0606071 -2.10518e-21)
(0.000362144 0.00047279 1.08244e-19)
(0.0190267 -0.0121369 -1.14792e-19)
(0.0512415 -0.0259744 -9.98647e-20)
(0.0927893 -0.0415556 9.53769e-20)
(0.14243 -0.0549233 1.66632e-19)
(0.197808 -0.0669693 4.79406e-20)
(0.258306 -0.076493 7.35831e-20)
(0.322499 -0.0840963 -1.29868e-19)
(0.389771 -0.0895116 8.57194e-20)
(0.459082 -0.0930977 -1.6773e-19)
(0.529658 -0.0949141 -1.93617e-19)
(0.600601 -0.0951614 -4.244e-21)
(0.670891 -0.0940951 -4.02305e-20)
(0.739883 -0.0916733 -1.34835e-19)
(0.805955 -0.0886524 -6.04274e-20)
(0.869701 -0.0839574 9.68514e-20)
(0.926959 -0.0806873 8.24403e-20)
(0.98412 -0.0725461 -4.81357e-20)
(1.02504 -0.0740915 -5.48488e-21)
(1.08347 -0.0566385 -2.91576e-20)
(0.000937563 -0.000229825 -1.15879e-19)
(0.0216094 -0.0137741 -1.4823e-19)
(0.0564337 -0.0280592 8.05969e-20)
(0.100817 -0.0438925 9.60161e-20)
(0.153449 -0.0572541 -5.72032e-20)
(0.211832 -0.0691623 -1.63125e-19)
(0.275308 -0.0783958 -1.66967e-20)
(0.34237 -0.0856149 -4.58502e-20)
(0.412348 -0.0905541 -3.15651e-19)
(0.484125 -0.0936053 1.27017e-19)
(0.556859 -0.094843 2.60114e-19)
(0.629572 -0.094492 3.78249e-20)
(0.701184 -0.0928324 -6.07063e-20)
(0.770966 -0.0898369 2.49962e-20)
(0.837293 -0.0863038 -1.40877e-19)
(0.90063 -0.0811308 -3.4219e-20)
(0.95706 -0.0775319 -9.28128e-21)
(1.01243 -0.0690021 4.47183e-22)
(1.05198 -0.0705356 -3.18776e-20)
(1.1067 -0.0525616 -2.06088e-21)
(0.00158958 -0.000987135 -3.09718e-19)
(0.0243869 -0.0154905 1.88729e-19)
(0.0619195 -0.0302011 -1.35421e-19)
(0.109221 -0.0462414 -2.81349e-19)
(0.164911 -0.0595376 -9.54291e-20)
(0.226347 -0.0712432 4.15728e-20)
(0.292826 -0.0801195 -8.84426e-21)
(0.362754 -0.0868893 1.50873e-19)
(0.435401 -0.0912917 2.09181e-19)
(0.50957 -0.0937547 2.04445e-19)
(0.584346 -0.09437 -7.43271e-20)
(0.658671 -0.0933896 -1.27315e-19)
(0.731403 -0.0911196 2.12729e-20)
(0.801735 -0.087551 -5.80253e-20)
(0.868052 -0.083519 5.45973e-20)
(0.93069 -0.0779076 3.48869e-20)
(0.986015 -0.0740106 -2.31721e-20)
(1.03932 -0.0651922 -2.42943e-21)
(1.0773 -0.0666944 -5.1357e-20)
(1.12805 -0.0484262 4.96789e-20)
(0.00232253 -0.00179659 1.11018e-19)
(0.0273664 -0.0172799 -4.05632e-20)
(0.0677054 -0.0323913 2.53083e-20)
(0.118005 -0.0485912 2.4058e-19)
(0.176814 -0.061761 7.23911e-20)
(0.241343 -0.0731979 -2.92802e-19)
(0.31084 -0.0816495 1.60967e-19)
(0.383619 -0.0879052 -1.48952e-19)
(0.458886 -0.0917117 -4.53556e-20)
(0.535358 -0.0935358 -8.87964e-20)
(0.612046 -0.0934894 6.95365e-20)
(0.687808 -0.0918544 -9.91035e-20)
(0.761446 -0.0889636 -8.82132e-20)
(0.832078 -0.0848304 1.25537e-19)
(0.898112 -0.0803213 1.75605e-19)
(0.959768 -0.0743195 1.07451e-20)
(1.01372 -0.0701621 7.03988e-20)
(1.0647 -0.0611609 6.91063e-20)
(1.10094 -0.0626183 -2.89025e-20)
(1.14755 -0.0442769 -1.10293e-19)
(0.00314062 -0.00265532 -3.4074e-21)
(0.0305551 -0.0191357 8.77138e-20)
(0.0737978 -0.0346202 1.69693e-19)
(0.127172 -0.0509299 -8.81378e-20)
(0.189155 -0.0639106 -2.98422e-19)
(0.25681 -0.0750117 1.49419e-19)
(0.329331 -0.0829708 -3.3813e-19)
(0.404935 -0.0886485 2.02602e-19)
(0.482758 -0.0918019 9.181e-20)
(0.561429 -0.09294 -1.23343e-20)
(0.639882 -0.0921972 -9.54945e-20)
(0.716894 -0.0898883 2.03708e-20)
(0.79121 -0.086374 1.41314e-19)
(0.861886 -0.0816926 -1.24986e-19)
(0.927366 -0.0767362 -9.52733e-21)
(0.987765 -0.0704001 -6.16552e-20)
(1.0401 -0.0660263 -1.71997e-19)
(1.08853 -0.0569516 -1.02546e-19)
(1.12288 -0.0583566 3.20322e-20)
(1.16523 -0.0401528 1.0939e-19)
(0.00404794 -0.00356008 2.15048e-19)
(0.0339598 -0.0210503 -2.44725e-20)
(0.0802023 -0.0368771 -1.19164e-19)
(0.136724 -0.0532447 -1.68165e-19)
(0.201931 -0.065972 1.43709e-19)
(0.272736 -0.0766693 -1.57287e-19)
(0.348276 -0.0840683 1.45612e-19)
(0.426667 -0.0891054 -4.4747e-20)
(0.50697 -0.0915508 -1.90493e-19)
(0.587723 -0.0919597 -9.13196e-21)
(0.667781 -0.0904911 1.0205e-19)
(0.745839 -0.0874959 2.09305e-19)
(0.8206 -0.0833625 -9.31423e-20)
(0.891059 -0.0781579 1.56613e-19)
(0.955715 -0.0727919 2.6244e-21)
(1.01459 -0.0661842 1.00215e-19)
(1.06508 -0.0616439 -1.014e-19)
(1.11078 -0.0526064 1.14319e-20)
(1.14311 -0.0539571 8.01577e-20)
(1.18114 -0.036088 -1.38595e-20)
(0.00504839 -0.00450736 -1.82516e-19)
(0.0375868 -0.0230157 -9.90151e-20)
(0.0869241 -0.0391509 -9.187e-20)
(0.146664 -0.055522 3.32209e-19)
(0.215138 -0.0679301 1.76863e-19)
(0.28911 -0.078155 2.08206e-19)
(0.367653 -0.0849267 9.57051e-20)
(0.448781 -0.089262 3.80589e-20)
(0.531475 -0.0909478 1.33524e-19)
(0.614178 -0.0905884 -3.60183e-19)
(0.695666 -0.0883707 -1.18953e-20)
(0.77456 -0.0846835 -4.78973e-20)
(0.849521 -0.0799437 1.82306e-19)
(0.919502 -0.0742483 2.57961e-21)
(0.983071 -0.0685182 3.75328e-20)
(1.04019 -0.0617078 -9.85146e-20)
(1.0886 -0.0570556 3.96888e-20)
(1.13142 -0.0481652 1.2076e-19)
(1.16164 -0.0494643 6.04173e-21)
(1.19535 -0.0321113 -4.44838e-20)
(0.00614572 -0.0054933 -1.69865e-19)
(0.0414422 -0.025023 4.67339e-20)
(0.0939677 -0.0414295 2.28184e-20)
(0.15699 -0.0577473 -1.15301e-19)
(0.228768 -0.0697692 -1.20696e-19)
(0.305916 -0.0794529 -5.90943e-20)
(0.387439 -0.0855309 1.32879e-19)
(0.47124 -0.0891053 6.76038e-20)
(0.556223 -0.089983 -6.08464e-20)
(0.640731 -0.0888215 1.79348e-19)
(0.723464 -0.0858373 1.02632e-19)
(0.802971 -0.0814599 -8.89665e-21)
(0.877885 -0.076134 -1.11253e-19)
(0.947129 -0.0699885 -1.55109e-19)
(1.00936 -0.0639464 -9.43919e-20)
(1.06448 -0.0570068 3.18952e-20)
(1.11065 -0.0523014 -1.01848e-21)
(1.15047 -0.0436656 -6.91909e-20)
(1.1785 -0.0449192 -9.74774e-20)
(1.20795 -0.028247 6.11033e-20)
(0.00734346 -0.00651378 -7.04605e-21)
(0.0455313 -0.0270629 1.78692e-21)
(0.101337 -0.0437 1.66444e-19)
(0.167704 -0.0599056 -2.16844e-19)
(0.242817 -0.0714731 1.26146e-19)
(0.323139 -0.0805464 1.58307e-19)
(0.407606 -0.0858655 -8.71256e-20)
(0.494009 -0.0886224 4.16416e-20)
(0.581164 -0.0886479 -5.59439e-20)
(0.667319 -0.0866555 -1.08066e-20)
(0.751101 -0.0828943 4.04368e-20)
(0.830992 -0.077836 7.11245e-20)
(0.905609 -0.0719523 -1.11103e-20)
(0.973861 -0.0654043 1.26127e-19)
(1.03451 -0.0591091 8.53419e-20)
(1.08744 -0.0521173 3.75903e-20)
(1.13119 -0.0474202 -1.05322e-20)
(1.16794 -0.0391424 2.56652e-20)
(1.19375 -0.0403578 -1.40203e-20)
(1.21901 -0.0245161 -1.35499e-19)
(0.00864494 -0.00756438 4.61591e-19)
(0.0498592 -0.0291255 -1.29295e-19)
(0.109035 -0.045949 -2.67299e-19)
(0.178803 -0.0619812 2.24797e-19)
(0.257275 -0.0730251 -1.06713e-19)
(0.340764 -0.0814192 -3.27538e-20)
(0.428128 -0.0859156 2.90752e-20)
(0.517047 -0.0878014 2.36975e-20)
(0.606247 -0.0869346 3.64231e-20)
(0.69388 -0.0840887 -7.91082e-20)
(0.778504 -0.0795469 -1.11869e-20)
(0.858545 -0.0738248 -2.63208e-19)
(0.932615 -0.0674192 -5.7558e-20)
(0.999629 -0.0605233 -4.91399e-20)
(1.05847 -0.0540392 -1.70319e-20)
(1.10902 -0.0470747 2.6558e-20)
(1.15023 -0.0424491 -6.97741e-21)
(1.18387 -0.0346273 9.33228e-21)
(1.20745 -0.0358113 -6.0543e-20)
(1.22864 -0.0209381 1.24591e-19)
(0.0100533 -0.00864042 -3.80401e-19)
(0.0544303 -0.0312004 3.56844e-20)
(0.117064 -0.0481626 1.64205e-19)
(0.190285 -0.0639579 -1.54637e-19)
(0.272133 -0.0744082 -1.37643e-19)
(0.358771 -0.0820547 -1.97865e-19)
(0.448977 -0.0856665 -8.74899e-20)
(0.540314 -0.0866311 -2.11932e-19)
(0.631419 -0.0848371 -1.99579e-20)
(0.720352 -0.0811211 7.04931e-20)
(0.805603 -0.0758025 -2.0436e-19)
(0.885557 -0.0694412 9.2094e-20)
(0.958833 -0.0625572 -3.96073e-20)
(1.02437 -0.0553742 -9.44568e-20)
(1.08119 -0.0487699 -1.2165e-19)
(1.12922 -0.041913 1.15492e-20)
(1.16778 -0.0374231 4.74088e-20)
(1.19831 -0.0301486 -1.29438e-20)
(1.21966 -0.0313053 1.21648e-19)
(1.23692 -0.0175332 -5.72395e-20)
(0.0115713 -0.00973698 3.26292e-19)
(0.0592485 -0.0332765 8.18863e-20)
(0.125425 -0.050326 1.515e-19)
(0.202147 -0.0658189 1.25024e-19)
(0.287382 -0.0756051 3.64376e-19)
(0.377141 -0.0824363 1.65579e-19)
(0.470122 -0.0851042 -3.16356e-20)
(0.563769 -0.085101 8.61771e-20)
(0.656629 -0.0823502 -1.01938e-19)
(0.746672 -0.0777544 1.80762e-19)
(0.83233 -0.0716702 9.18109e-20)
(0.911956 -0.0647021 2.06073e-20)
(0.984198 -0.0573903 1.56863e-19)
(1.04804 -0.0499861 2.98425e-20)
(1.10266 -0.0433343 9.55283e-20)
(1.14802 -0.0366651 -1.47654e-19)
(1.18386 -0.0323748 -1.14956e-19)
(1.21131 -0.0257312 1.26825e-21)
(1.23047 -0.0268594 6.68564e-20)
(1.24394 -0.0143201 9.49909e-20)
(0.0132016 -0.0108489 -4.1364e-19)
(0.0643169 -0.0353424 1.18601e-20)
(0.134119 -0.0524241 -1.83247e-19)
(0.214385 -0.067547 1.64959e-20)
(0.303007 -0.0765982 -4.58751e-19)
(0.395853 -0.0825477 2.26181e-20)
(0.491531 -0.0842149 2.96384e-20)
(0.587369 -0.083202 -2.08836e-20)
(0.681824 -0.0794706 6.39367e-20)
(0.772778 -0.0739921 -1.72655e-20)
(0.858618 -0.0671612 4.74832e-20)
(0.937679 -0.0596262 2.55633e-20)
(1.00865 -0.0519437 -4.07638e-20)
(1.07059 -0.0443889 -1.29298e-20)
(1.12284 -0.0377647 -4.89039e-20)
(1.16544 -0.0313617 1.51351e-19)
(1.19851 -0.0273341 5.92439e-20)
(1.22294 -0.0213967 5.98259e-20)
(1.23996 -0.0224844 -4.42402e-20)
(1.24979 -0.0113118 -7.47696e-20)
(0.0149466 -0.0119708 3.27235e-19)
(0.0696381 -0.0373862 -1.98572e-19)
(0.143145 -0.0544414 1.76901e-20)
(0.226991 -0.0691248 -2.04952e-19)
(0.318997 -0.07737 5.16847e-19)
(0.414885 -0.0823728 1.82603e-19)
(0.513173 -0.0829859 -2.88385e-19)
(0.611071 -0.0809258 -6.72862e-20)
(0.706949 -0.0761964 1.1321e-21)
(0.798611 -0.0698396 1.2648e-20)
(0.884405 -0.0622884 -1.21495e-19)
(0.962666 -0.0542335 4.66745e-20)
(1.03215 -0.0462433 1.2134e-19)
(1.09199 -0.0386123 1.82965e-19)
(1.14172 -0.0320923 5.24389e-20)
(1.1815 -0.0260314 -4.88648e-20)
(1.21177 -0.0223282 -2.0491e-20)
(1.23328 -0.0171619 -7.85135e-20)
(1.24821 -0.0181803 1.42157e-20)
(1.25454 -0.00856173 -1.41571e-20)
(0.0168082 -0.0130971 8.85845e-20)
(0.0752139 -0.0393957 3.10831e-19)
(0.152502 -0.0563619 -9.86398e-20)
(0.23996 -0.0705347 9.29844e-20)
(0.335337 -0.0779031 -1.99876e-19)
(0.434212 -0.081896 -6.98588e-20)
(0.535011 -0.081405 2.03333e-19)
(0.634831 -0.0782658 1.70337e-20)
(0.731953 -0.0725272 9.00013e-20)
(0.824111 -0.0653038 -4.17212e-20)
(0.90963 -0.0570666 6.9031e-20)
(0.986861 -0.0485455 -3.60621e-20)
(1.05464 -0.040316 -5.39576e-20)
(1.11221 -0.0326856 -1.88958e-19)
(1.15931 -0.0263472 -1.02873e-19)
(1.19622 -0.0207006 -4.29705e-20)
(1.2237 -0.0173817 7.09967e-21)
(1.24239 -0.0130383 5.7963e-20)
(1.25529 -0.0139517 -1.17123e-20)
(1.25838 -0.0063224 1.33738e-20)
(0.0187884 -0.0142222 -3.87793e-19)
(0.0810455 -0.0413585 -5.88541e-20)
(0.162187 -0.0581696 9.64842e-20)
(0.253282 -0.0717588 -9.80056e-20)
(0.35201 -0.0781801 -1.22858e-19)
(0.453809 -0.0811022 -2.32015e-19)
(0.557013 -0.0794612 -2.15015e-19)
(0.658604 -0.0752163 1.93189e-19)
(0.756781 -0.0684645 6.59997e-20)
(0.849222 -0.0603939 -2.12715e-19)
(0.934238 -0.0515119 -5.47407e-20)
(1.01022 -0.0425849 -1.57715e-19)
(1.07609 -0.0341888 -7.53994e-20)
(1.13125 -0.0266377 1.84283e-19)
(1.17561 -0.0205575 1.00134e-19)
(1.20963 -0.0153929 -8.88088e-20)
(1.23435 -0.0125161 -7.05348e-21)
(1.25038 -0.0090304 -5.54037e-20)
(1.26129 -0.00985369 8.21868e-20)
(1.26172 -0.00495655 -9.73451e-21)
(0.0208885 -0.0153402 2.66429e-19)
(0.0871334 -0.0432617 -5.0685e-20)
(0.172197 -0.059848 2.11864e-19)
(0.266949 -0.0727795 2.10265e-19)
(0.368998 -0.0781839 1.76745e-19)
(0.473649 -0.079977 1.08072e-19)
(0.579139 -0.0771445 2.88496e-19)
(0.682343 -0.0717734 -1.3153e-19)
(0.781383 -0.0640113 -1.29647e-20)
(0.873888 -0.0551203 2.61613e-19)
(0.958175 -0.0456423 1.1794e-19)
(1.03269 -0.0363751 2.96266e-19)
(1.09648 -0.027889 1.72023e-20)
(1.14908 -0.0204966 -1.67845e-19)
(1.19065 -0.0147496 -5.65817e-20)
(1.22177 -0.0101294 1.76487e-19)
(1.24378 -0.00774974 2.48829e-20)
(1.2573 -0.0051405 7.16364e-20)
(1.26623 -0.0059871 -9.73043e-21)
(1.26521 -0.00346387 1.22861e-20)
(0.0231097 -0.0164449 -1.93859e-19)
(0.0934768 -0.0450922 -8.92487e-21)
(0.182527 -0.0613802 -2.7992e-19)
(0.280948 -0.0735785 -2.23777e-20)
(0.386282 -0.0778978 1.15297e-19)
(0.493703 -0.0785064 -1.03248e-20)