/*--------------------------------*- C++ -*----------------------------------*\
  =========                 |
  \\      /  F ield         | OpenFOAM: The Open Source CFD Toolbox
   \\    /   O peration     | Website:  https://openfoam.org
    \\  /    A nd           | Version:  7
     \\/     M anipulation  |
\*---------------------------------------------------------------------------*/
FoamFile
{
    version     2.0;
    format      ascii;
    class       volVectorField;
    location    "20";
    object      U;
}
// * * * * * * * * * * * * * * * * * * * * * * * * * * * * * * * * * * * * * //

dimensions      [0 1 -1 0 0 0 0];

internalField   nonuniform List<vector> 
2625
(
(1.25629 -0.0124787 0)
(1.25472 -0.013165 0)
(1.25312 -0.0138061 0)
(1.25147 -0.0144024 0)
(1.24979 -0.0149545 0)
(1.24808 -0.015463 0)
(1.24633 -0.0159287 0)
(1.24456 -0.0163527 0)
(1.24276 -0.0167362 0)
(1.24093 -0.0170804 0)
(1.23908 -0.0173867 0)
(1.23721 -0.0176567 0)
(1.23532 -0.0178918 0)
(1.23341 -0.0180937 0)
(1.23149 -0.0182642 0)
(1.22955 -0.0184048 0)
(1.2276 -0.0185173 0)
(1.22564 -0.0186034 0)
(1.22366 -0.0186648 0)
(1.22168 -0.0187031 0)
(1.21968 -0.01872 0)
(1.21768 -0.018717 0)
(1.21567 -0.0186957 0)
(1.21366 -0.0186575 0)
(1.21164 -0.018604 0)
(1.20961 -0.0185365 0)
(1.20758 -0.0184562 0)
(1.20555 -0.0183645 0)
(1.20351 -0.0182626 0)
(1.20147 -0.0181515 0)
(1.19943 -0.0180324 0)
(1.19739 -0.0179063 0)
(1.19534 -0.0177741 0)
(1.1933 -0.0176368 0)
(1.19125 -0.0174952 0)
(1.27244 0.00204478 0)
(1.27195 0.000864903 0)
(1.27132 -0.000335211 0)
(1.27056 -0.00153566 0)
(1.26969 -0.00271006 0)
(1.26873 -0.0038449 0)
(1.26768 -0.00493446 0)
(1.26657 -0.00597705 0)
(1.2654 -0.00697279 0)
(1.26417 -0.0079223 0)
(1.26288 -0.00882621 0)
(1.26155 -0.00968496 0)
(1.26016 -0.0104988 0)
(1.25873 -0.0112679 0)
(1.25725 -0.0119923 0)
(1.25573 -0.0126723 0)
(1.25417 -0.013308 0)
(1.25257 -0.0138998 0)
(1.25093 -0.0144483 0)
(1.24926 -0.014954 0)
(1.24755 -0.0154178 0)
(1.24582 -0.0158407 0)
(1.24406 -0.0162237 0)
(1.24227 -0.0165681 0)
(1.24045 -0.0168753 0)
(1.23862 -0.0171467 0)
(1.23676 -0.0173838 0)
(1.23489 -0.0175881 0)
(1.233 -0.0177614 0)
(1.23109 -0.0179053 0)
(1.22917 -0.0180214 0)
(1.22724 -0.0181113 0)
(1.22529 -0.0181768 0)
(1.22333 -0.0182195 0)
(1.22137 -0.0182409 0)
(1.21939 -0.0182427 0)
(1.21741 -0.0182263 0)
(1.21542 -0.0181932 0)
(1.21342 -0.0181449 0)
(1.21142 -0.0180826 0)
(1.20941 -0.0180077 0)
(1.2074 -0.0179214 0)
(1.20538 -0.0178249 0)
(1.20336 -0.0177194 0)
(1.20134 -0.0176059 0)
(1.19932 -0.0174854 0)
(1.19729 -0.0173588 0)
(1.19527 -0.0172271 0)
(1.19324 -0.0170911 0)
(1.27253 0.00220543 0)
(1.27207 0.00107024 0)
(1.27151 -8.46183e-05 0)
(1.27082 -0.00124388 0)
(1.27002 -0.0023841 0)
(1.26912 -0.0034914 0)
(1.26815 -0.00455864 0)
(1.2671 -0.00558271 0)
(1.26599 -0.00656261 0)
(1.26481 -0.00749823 0)
(1.26358 -0.00838976 0)
(1.2623 -0.00923736 0)
(1.26096 -0.0100412 0)
(1.25958 -0.0108013 0)
(1.25815 -0.0115178 0)
(1.25668 -0.0121907 0)
(1.25516 -0.0128204 0)
(1.2536 -0.0134072 0)
(1.25201 -0.0139514 0)
(1.25038 -0.0144539 0)
(1.24871 -0.0149152 0)
(1.24702 -0.0153364 0)
(1.2453 -0.0157186 0)
(1.24354 -0.0160628 0)
(1.24177 -0.0163704 0)
(1.23997 -0.0166428 0)
(1.23815 -0.0168814 0)
(1.23631 -0.0170878 0)
(1.23445 -0.0172636 0)
(1.23257 -0.0174103 0)
(1.23068 -0.0175297 0)
(1.22878 -0.0176232 0)
(1.22686 -0.0176925 0)
(1.22493 -0.0177393 0)
(1.22299 -0.0177651 0)
(1.22104 -0.0177714 0)
(1.21908 -0.0177596 0)
(1.21712 -0.0177314 0)
(1.21515 -0.017688 0)
(1.21317 -0.0176308 0)
(1.21118 -0.0175611 0)
(1.20919 -0.01748 0)
(1.2072 -0.0173889 0)
(1.2052 -0.0172888 0)
(1.2032 -0.0171807 0)
(1.2012 -0.0170656 0)
(1.19919 -0.0169445 0)
(1.19718 -0.0168183 0)
(1.19518 -0.0166879 0)
(1.27258 0.00235278 0)
(1.27216 0.00125718 0)
(1.27165 0.000143821 0)
(1.27102 -0.000975882 0)
(1.27029 -0.00208176 0)
(1.26947 -0.0031603 0)
(1.26855 -0.00420362 0)
(1.26757 -0.00520753 0)
(1.26651 -0.0061701 0)
(1.2654 -0.00709054 0)
(1.26422 -0.00796856 0)
(1.26299 -0.00880406 0)
(1.26171 -0.00959701 0)
(1.26037 -0.0103474 0)
(1.25899 -0.0110552 0)
(1.25756 -0.0117205 0)
(1.25609 -0.0123436 0)
(1.25458 -0.0129247 0)
(1.25303 -0.0134642 0)
(1.25144 -0.0139628 0)
(1.24981 -0.0144212 0)
(1.24816 -0.0148403 0)
(1.24647 -0.015221 0)
(1.24476 -0.0155646 0)
(1.24302 -0.0158721 0)
(1.24126 -0.0161451 0)
(1.23947 -0.0163849 0)
(1.23766 -0.016593 0)
(1.23584 -0.0167709 0)
(1.23399 -0.0169202 0)
(1.23213 -0.0170424 0)
(1.23026 -0.0171392 0)
(1.22837 -0.0172121 0)
(1.22647 -0.0172627 0)
(1.22456 -0.0172925 0)
(1.22264 -0.0173031 0)
(1.22071 -0.0172958 0)
(1.21877 -0.0172722 0)
(1.21682 -0.0172336 0)
(1.21486 -0.0171813 0)
(1.2129 -0.0171165 0)
(1.21093 -0.0170406 0)
(1.20896 -0.0169546 0)
(1.20699 -0.0168597 0)
(1.20501 -0.0167568 0)
(1.20302 -0.0166471 0)
(1.20104 -0.0165314 0)
(1.19905 -0.0164106 0)
(1.19706 -0.0162855 0)
(1.2726 0.00248758 0)
(1.27222 0.00142746 0)
(1.27176 0.000352202 0)
(1.27119 -0.000729808 0)
(1.27052 -0.00180168 0)
(1.26975 -0.00285078 0)
(1.26891 -0.00386898 0)
(1.26798 -0.00485139 0)
(1.26698 -0.00579531 0)
(1.26592 -0.00669936 0)
(1.2648 -0.00756281 0)
(1.26362 -0.00838526 0)
(1.26239 -0.00916649 0)
(1.2611 -0.00990635 0)
(1.25977 -0.0106048 0)
(1.25839 -0.0112619 0)
(1.25696 -0.0118777 0)
(1.25549 -0.0124525 0)
(1.25398 -0.0129868 0)
(1.25244 -0.013481 0)
(1.25086 -0.0139359 0)
(1.24924 -0.0143524 0)
(1.24759 -0.0147312 0)
(1.24592 -0.0150736 0)
(1.24422 -0.0153807 0)
(1.24249 -0.0156539 0)
(1.24074 -0.0158944 0)
(1.23896 -0.0161038 0)
(1.23717 -0.0162835 0)
(1.23536 -0.016435 0)
(1.23353 -0.0165598 0)
(1.23169 -0.0166595 0)
(1.22983 -0.0167357 0)
(1.22795 -0.0167899 0)
(1.22607 -0.0168235 0)
(1.22418 -0.0168381 0)
(1.22227 -0.016835 0)
(1.22036 -0.0168158 0)
(1.21843 -0.0167817 0)
(1.2165 -0.0167341 0)
(1.21456 -0.0166742 0)
(1.21262 -0.0166031 0)
(1.21067 -0.0165222 0)
(1.20872 -0.0164323 0)
(1.20676 -0.0163346 0)
(1.2048 -0.01623 0)
(1.20283 -0.0161195 0)
(1.20086 -0.0160039 0)
(1.19889 -0.0158841 0)
(1.2726 0.00261042 0)
(1.27224 0.00158248 0)
(1.27183 0.000542318 0)
(1.27131 -0.000503949 0)
(1.2707 -0.00154251 0)
(1.27 -0.00256192 0)
(1.26921 -0.00355418 0)
(1.26834 -0.00451399 0)
(1.2674 -0.00543814 0)
(1.26639 -0.00632471 0)
(1.26532 -0.00717258 0)
(1.2642 -0.00798108 0)
(1.26301 -0.00874976 0)
(1.26178 -0.00947837 0)
(1.26049 -0.0101667 0)
(1.25915 -0.0108149 0)
(1.25777 -0.0114228 0)
(1.25635 -0.0119908 0)
(1.25488 -0.0125193 0)
(1.25338 -0.0130086 0)
(1.25184 -0.0134595 0)
(1.25026 -0.0138728 0)
(1.24866 -0.0142493 0)
(1.24702 -0.0145901 0)
(1.24535 -0.0148964 0)
(1.24366 -0.0151693 0)
(1.24194 -0.0154101 0)
(1.24021 -0.0156204 0)
(1.23845 -0.0158015 0)
(1.23667 -0.0159548 0)
(1.23487 -0.0160819 0)
(1.23305 -0.0161843 0)
(1.23123 -0.0162634 0)
(1.22938 -0.0163209 0)
(1.22753 -0.016358 0)
(1.22566 -0.0163764 0)
(1.22378 -0.0163774 0)
(1.22189 -0.0163623 0)
(1.21999 -0.0163326 0)
(1.21809 -0.0162895 0)
(1.21617 -0.0162342 0)
(1.21425 -0.0161679 0)
(1.21233 -0.0160917 0)
(1.2104 -0.0160067 0)
(1.20846 -0.015914 0)
(1.20652 -0.0158145 0)
(1.20457 -0.015709 0)
(1.20262 -0.0155985 0)
(1.20067 -0.0154838 0)
(1.27257 0.00272172 0)
(1.27224 0.00172333 0)
(1.27187 0.000715691 0)
(1.2714 -0.000296746 0)
(1.27084 -0.00130292 0)
(1.27019 -0.00229272 0)
(1.26946 -0.00325853 0)
(1.26865 -0.00419493 0)
(1.26776 -0.00509835 0)
(1.26681 -0.00596649 0)
(1.26579 -0.00679787 0)
(1.26472 -0.00759155 0)
(1.26358 -0.0083469 0)
(1.2624 -0.00906352 0)
(1.26116 -0.00974115 0)
(1.25987 -0.0103797 0)
(1.25853 -0.0109792 0)
(1.25715 -0.0115398 0)
(1.25573 -0.0120618 0)
(1.25427 -0.0125457 0)
(1.25277 -0.0129921 0)
(1.25123 -0.0134018 0)
(1.24966 -0.0137754 0)
(1.24806 -0.0141142 0)
(1.24643 -0.0144191 0)
(1.24478 -0.0146913 0)
(1.2431 -0.0149322 0)
(1.24139 -0.0151429 0)
(1.23966 -0.015325 0)
(1.23792 -0.0154799 0)
(1.23615 -0.0156089 0)
(1.23437 -0.0157136 0)
(1.23257 -0.0157955 0)
(1.23075 -0.0158559 0)
(1.22893 -0.0158964 0)
(1.22709 -0.0159183 0)
(1.22523 -0.015923 0)
(1.22337 -0.0159119 0)
(1.2215 -0.0158863 0)
(1.21962 -0.0158475 0)
(1.21773 -0.0157966 0)
(1.21583 -0.0157349 0)
(1.21393 -0.0156634 0)
(1.21202 -0.0155831 0)
(1.21011 -0.0154952 0)
(1.20819 -0.0154006 0)
(1.20626 -0.0153 0)
(1.20434 -0.0151945 0)
(1.2024 -0.0150848 0)
(1.27252 0.00282181 0)
(1.27222 0.00185092 0)
(1.27188 0.000873608 0)
(1.27146 -0.000106801 0)
(1.27095 -0.00108163 0)
(1.27035 -0.00204214 0)
(1.26967 -0.00298127 0)
(1.26891 -0.00389369 0)
(1.26808 -0.00477563 0)
(1.26718 -0.00562451 0)
(1.26622 -0.00643857 0)
(1.26519 -0.00721664 0)
(1.2641 -0.00795791 0)
(1.26296 -0.00866183 0)
(1.26177 -0.00932805 0)
(1.26053 -0.00995639 0)
(1.25924 -0.0105468 0)
(1.2579 -0.0110994 0)
(1.25652 -0.0116145 0)
(1.2551 -0.0120925 0)
(1.25364 -0.0125338 0)
(1.25214 -0.0129393 0)
(1.25061 -0.0133097 0)
(1.24905 -0.0136459 0)
(1.24746 -0.0139491 0)
(1.24584 -0.0142202 0)
(1.24419 -0.0144606 0)
(1.24252 -0.0146715 0)
(1.24083 -0.0148543 0)
(1.23911 -0.0150103 0)
(1.23738 -0.0151409 0)
(1.23563 -0.0152477 0)
(1.23386 -0.0153319 0)
(1.23207 -0.0153951 0)
(1.23027 -0.0154385 0)
(1.22846 -0.0154637 0)
(1.22664 -0.015472 0)
(1.2248 -0.0154647 0)
(1.22295 -0.015443 0)
(1.2211 -0.0154083 0)
(1.21923 -0.0153617 0)
(1.21736 -0.0153043 0)
(1.21548 -0.0152373 0)
(1.21359 -0.0151616 0)
(1.2117 -0.0150784 0)
(1.2098 -0.0149884 0)
(1.2079 -0.0148927 0)
(1.20599 -0.014792 0)
(1.20408 -0.0146871 0)
(1.27245 0.00291097 0)
(1.27217 0.00196597 0)
(1.27187 0.00101716 0)
(1.27149 6.71295e-05 0)
(1.27102 -0.00087746 0)
(1.27047 -0.00180916 0)
(1.26984 -0.0027216 0)
(1.26913 -0.00360967 0)
(1.26835 -0.00446955 0)
(1.2675 -0.00529848 0)
(1.26659 -0.00609451 0)
(1.26561 -0.00685625 0)
(1.26457 -0.00758274 0)
(1.26348 -0.0082733 0)
(1.26233 -0.00892747 0)
(1.26114 -0.00954499 0)
(1.25989 -0.0101258 0)
(1.25859 -0.0106698 0)
(1.25726 -0.0111774 0)
(1.25588 -0.0116489 0)
(1.25446 -0.0120847 0)
(1.253 -0.0124856 0)
(1.25151 -0.0128522 0)
(1.24999 -0.0131855 0)
(1.24843 -0.0134864 0)
(1.24685 -0.0137561 0)
(1.24524 -0.0139956 0)
(1.2436 -0.0142062 0)
(1.24194 -0.0143893 0)
(1.24026 -0.0145462 0)
(1.23855 -0.0146781 0)
(1.23683 -0.0147865 0)
(1.23509 -0.0148729 0)
(1.23334 -0.0149385 0)
(1.23157 -0.0149847 0)
(1.22978 -0.015013 0)
(1.22798 -0.0150245 0)
(1.22617 -0.0150207 0)
(1.22435 -0.0150028 0)
(1.22252 -0.0149719 0)
(1.22068 -0.0149294 0)
(1.21884 -0.0148762 0)
(1.21698 -0.0148135 0)
(1.21512 -0.0147423 0)
(1.21325 -0.0146635 0)
(1.21137 -0.0145782 0)
(1.20949 -0.0144871 0)
(1.2076 -0.0143911 0)
(1.20571 -0.0142909 0)
(1.27235 0.00298943 0)
(1.2721 0.00206908 0)
(1.27183 0.00114727 0)
(1.27149 0.000226142 0)
(1.27106 -0.000689289 0)
(1.27056 -0.00159278 0)
(1.26998 -0.00247868 0)
(1.26932 -0.00334221 0)
(1.26859 -0.00417961 0)
(1.26779 -0.00498805 0)
(1.26692 -0.00576542 0)
(1.26599 -0.0065102 0)
(1.265 -0.00722127 0)
(1.26395 -0.00789784 0)
(1.26285 -0.00853935 0)
(1.2617 -0.00914547 0)
(1.26049 -0.00971602 0)
(1.25924 -0.010251 0)
(1.25794 -0.0107506 0)
(1.25661 -0.0112151 0)
(1.25523 -0.0116449 0)
(1.25381 -0.0120406 0)
(1.25236 -0.012403 0)
(1.25087 -0.0127329 0)
(1.24935 -0.0130312 0)
(1.2478 -0.0132989 0)
(1.24623 -0.0135372 0)
(1.24462 -0.0137472 0)
(1.243 -0.0139303 0)
(1.24135 -0.0140876 0)
(1.23967 -0.0142205 0)
(1.23798 -0.0143303 0)
(1.23627 -0.0144184 0)
(1.23455 -0.0144862 0)
(1.23281 -0.014535 0)
(1.23105 -0.014566 0)
(1.22928 -0.0145806 0)
(1.2275 -0.0145801 0)
(1.2257 -0.0145657 0)
(1.2239 -0.0145386 0)
(1.22208 -0.0144999 0)
(1.22026 -0.0144507 0)
(1.21843 -0.0143921 0)
(1.21659 -0.0143252 0)
(1.21474 -0.0142508 0)
(1.21289 -0.0141699 0)
(1.21103 -0.0140833 0)
(1.20916 -0.0139918 0)
(1.20729 -0.0138963 0)
(1.27224 0.00305741 0)
(1.27201 0.00216075 0)
(1.27178 0.00126471 0)
(1.27147 0.000371204 0)
(1.27108 -0.000516104 0)
(1.27062 -0.00139205 0)
(1.27008 -0.00225169 0)
(1.26947 -0.00309063 0)
(1.26878 -0.00390528 0)
(1.26803 -0.0046928 0)
(1.26721 -0.005451 0)
(1.26632 -0.00617825 0)
(1.26538 -0.00687333 0)
(1.26438 -0.00753533 0)
(1.26332 -0.00816362 0)
(1.26221 -0.00875778 0)
(1.26105 -0.00931758 0)
(1.25984 -0.00984295 0)
(1.25858 -0.010334 0)
(1.25728 -0.010791 0)
(1.25595 -0.0112143 0)
(1.25457 -0.0116045 0)
(1.25315 -0.0119622 0)
(1.2517 -0.0122882 0)
(1.25022 -0.0125835 0)
(1.24871 -0.0128489 0)
(1.24716 -0.0130855 0)
(1.2456 -0.0132945 0)
(1.244 -0.0134772 0)
(1.24238 -0.0136346 0)
(1.24074 -0.0137682 0)
(1.23908 -0.0138791 0)
(1.2374 -0.0139687 0)
(1.23571 -0.0140384 0)
(1.23399 -0.0140894 0)
(1.23227 -0.014123 0)
(1.23052 -0.0141404 0)
(1.22877 -0.014143 0)
(1.227 -0.0141319 0)
(1.22522 -0.0141083 0)
(1.22343 -0.0140733 0)
(1.22163 -0.0140279 0)
(1.21982 -0.0139733 0)
(1.21801 -0.0139105 0)
(1.21618 -0.0138403 0)
(1.21435 -0.0137636 0)
(1.21251 -0.0136814 0)
(1.21067 -0.0135944 0)
(1.20882 -0.0135033 0)
(1.27211 0.00311508 0)
(1.27191 0.00224141 0)
(1.2717 0.00137017 0)
(1.27143 0.000503164 0)
(1.27107 -0.000356983 0)
(1.27065 -0.00120606 0)
(1.27015 -0.00203979 0)
(1.26958 -0.00285422 0)
(1.26894 -0.00364597 0)
(1.26823 -0.00441225 0)
(1.26746 -0.00515087 0)
(1.26662 -0.00586012 0)
(1.26572 -0.00653869 0)
(1.26476 -0.00718561 0)
(1.26374 -0.00780015 0)
(1.26268 -0.00838183 0)
(1.26156 -0.00893035 0)
(1.26039 -0.0094456 0)
(1.25918 -0.00992763 0)
(1.25792 -0.0103766 0)
(1.25662 -0.010793 0)
(1.25528 -0.0111772 0)
(1.2539 -0.0115297 0)
(1.25249 -0.0118515 0)
(1.25104 -0.0121433 0)
(1.24956 -0.0124059 0)
(1.24805 -0.0126406 0)
(1.24652 -0.0128482 0)
(1.24496 -0.0130301 0)
(1.24337 -0.0131874 0)
(1.24176 -0.0133212 0)
(1.24013 -0.013433 0)
(1.23848 -0.0135238 0)
(1.23682 -0.0135951 0)
(1.23513 -0.0136481 0)
(1.23343 -0.013684 0)
(1.23171 -0.013704 0)
(1.22999 -0.0137095 0)
(1.22824 -0.0137014 0)
(1.22649 -0.0136811 0)
(1.22473 -0.0136496 0)
(1.22295 -0.0136079 0)
(1.22117 -0.0135572 0)
(1.21937 -0.0134982 0)
(1.21757 -0.0134321 0)
(1.21577 -0.0133596 0)
(1.21395 -0.0132816 0)
(1.21213 -0.0131988 0)
(1.2103 -0.0131121 0)
(1.27197 0.00316265 0)
(1.27179 0.00231144 0)
(1.27161 0.00146421 0)
(1.27136 0.000622769 0)
(1.27105 -0.000211088 0)
(1.27066 -0.00103396 0)
(1.2702 -0.00184219 0)
(1.26967 -0.00263228 0)
(1.26907 -0.00340107 0)
(1.26841 -0.00414591 0)
(1.26767 -0.00486462 0)
(1.26688 -0.00555547 0)
(1.26602 -0.00621709 0)
(1.2651 -0.00684845 0)
(1.26413 -0.00744875 0)
(1.2631 -0.00801747 0)
(1.26202 -0.00855424 0)
(1.2609 -0.00905889 0)
(1.25972 -0.00953143 0)
(1.2585 -0.00997201 0)
(1.25724 -0.0103809 0)
(1.25594 -0.0107586 0)
(1.2546 -0.0111057 0)
(1.25322 -0.0114227 0)
(1.25181 -0.0117106 0)
(1.25037 -0.0119702 0)
(1.24889 -0.0122024 0)
(1.24739 -0.0124084 0)
(1.24586 -0.0125891 0)
(1.24431 -0.0127459 0)
(1.24273 -0.0128797 0)
(1.24113 -0.0129919 0)
(1.23951 -0.0130838 0)
(1.23787 -0.0131564 0)
(1.23622 -0.0132111 0)
(1.23455 -0.013249 0)
(1.23286 -0.0132714 0)
(1.23116 -0.0132795 0)
(1.22944 -0.0132744 0)
(1.22771 -0.0132572 0)
(1.22597 -0.013229 0)
(1.22422 -0.0131908 0)
(1.22246 -0.0131437 0)
(1.22069 -0.0130885 0)
(1.21892 -0.0130262 0)
(1.21713 -0.0129577 0)
(1.21534 -0.0128838 0)
(1.21354 -0.0128052 0)
(1.21173 -0.0127226 0)
(1.27181 0.00320027 0)
(1.27166 0.00237115 0)
(1.2715 0.00154735 0)
(1.27129 0.000730677 0)
(1.271 -7.7665e-05 0)
(1.27065 -0.000874967 0)
(1.27023 -0.00165814 0)
(1.26973 -0.0024241 0)
(1.26917 -0.00316996 0)
(1.26855 -0.00389323 0)
(1.26786 -0.00459179 0)
(1.2671 -0.00526391 0)
(1.26628 -0.00590821 0)
(1.26541 -0.00652359 0)
(1.26448 -0.00710923 0)
(1.26349 -0.00766453 0)
(1.26245 -0.00818909 0)
(1.26136 -0.0086827 0)
(1.26023 -0.0091453 0)
(1.25905 -0.009577 0)
(1.25782 -0.00997806 0)
(1.25656 -0.0103489 0)
(1.25525 -0.0106899 0)
(1.25391 -0.0110019 0)
(1.25254 -0.0112855 0)
(1.25113 -0.0115416 0)
(1.24969 -0.0117711 0)
(1.24822 -0.0119749 0)
(1.24672 -0.0121543 0)
(1.2452 -0.0123101 0)
(1.24365 -0.0124437 0)
(1.24208 -0.0125561 0)
(1.24049 -0.0126486 0)
(1.23888 -0.0127223 0)
(1.23726 -0.0127784 0)
(1.23561 -0.0128182 0)
(1.23395 -0.0128428 0)
(1.23228 -0.0128533 0)
(1.23059 -0.0128509 0)
(1.22888 -0.0128366 0)
(1.22717 -0.0128115 0)
(1.22544 -0.0127766 0)
(1.22371 -0.0127329 0)
(1.22196 -0.0126814 0)
(1.22021 -0.0126229 0)
(1.21845 -0.0125582 0)
(1.21668 -0.0124882 0)
(1.2149 -0.0124136 0)
(1.21311 -0.0123351 0)
(1.27164 0.00322814 0)
(1.27151 0.00242086 0)
(1.27138 0.00162002 0)
(1.27119 0.000827471 0)
(1.27094 4.3969e-05 0)
(1.27061 -0.000728355 0)
(1.27023 -0.00148691 0)
(1.26977 -0.00222899 0)
(1.26925 -0.00295203 0)
(1.26866 -0.00365368 0)
(1.26801 -0.00433191 0)
(1.26729 -0.00498505 0)
(1.26651 -0.0056117 0)
(1.26568 -0.00621074 0)
(1.26479 -0.00678132 0)
(1.26384 -0.0073228 0)
(1.26284 -0.00783474 0)
(1.26179 -0.00831687 0)
(1.26069 -0.00876911 0)
(1.25955 -0.00919152 0)
(1.25836 -0.0095843 0)
(1.25713 -0.00994781 0)
(1.25586 -0.0102825 0)
(1.25456 -0.010589 0)
(1.25322 -0.0108679 0)
(1.25184 -0.0111202 0)
(1.25043 -0.0113465 0)
(1.249 -0.011548 0)
(1.24753 -0.0117255 0)
(1.24604 -0.0118802 0)
(1.24453 -0.0120132 0)
(1.24299 -0.0121255 0)
(1.24143 -0.0122183 0)
(1.23985 -0.0122929 0)
(1.23825 -0.0123502 0)
(1.23663 -0.0123916 0)
(1.235 -0.0124181 0)
(1.23335 -0.0124308 0)
(1.23168 -0.0124308 0)
(1.23001 -0.0124193 0)
(1.22832 -0.0123971 0)
(1.22662 -0.0123654 0)
(1.22491 -0.012325 0)
(1.22318 -0.0122769 0)
(1.22145 -0.012222 0)
(1.21971 -0.012161 0)
(1.21797 -0.0120948 0)
(1.21621 -0.0120241 0)
(1.21445 -0.0119495 0)
(1.27146 0.00324641 0)
(1.27135 0.00246082 0)
(1.27125 0.00168262 0)
(1.27108 0.000913671 0)
(1.27086 0.000154429 0)
(1.27056 -0.000593452 0)
(1.27021 -0.00132781 0)
(1.26979 -0.00204631 0)
(1.2693 -0.00274665 0)
(1.26875 -0.00342668 0)
(1.26813 -0.00408449 0)
(1.26745 -0.00471844 0)
(1.26671 -0.00532718 0)
(1.26592 -0.00590958 0)
(1.26506 -0.00646475 0)
(1.26415 -0.00699205 0)
(1.26319 -0.00749098 0)
(1.26218 -0.00796125 0)
(1.26112 -0.00840273 0)
(1.26001 -0.00881544 0)
(1.25886 -0.00919955 0)
(1.25767 -0.00955537 0)
(1.25643 -0.00988331 0)
(1.25516 -0.0101839 0)
(1.25385 -0.0104579 0)
(1.25251 -0.0107059 0)
(1.25114 -0.0109288 0)
(1.24973 -0.0111275 0)
(1.2483 -0.0113029 0)
(1.24684 -0.0114561 0)
(1.24535 -0.0115882 0)
(1.24385 -0.0117001 0)
(1.24231 -0.0117931 0)
(1.24076 -0.0118682 0)
(1.23919 -0.0119265 0)
(1.2376 -0.0119692 0)
(1.23599 -0.0119974 0)
(1.23437 -0.0120121 0)
(1.23273 -0.0120144 0)
(1.23108 -0.0120054 0)
(1.22942 -0.011986 0)
(1.22774 -0.0119572 0)
(1.22606 -0.01192 0)
(1.22436 -0.0118752 0)
(1.22265 -0.0118237 0)
(1.22093 -0.0117663 0)
(1.21921 -0.0117037 0)
(1.21747 -0.0116367 0)
(1.21573 -0.011566 0)
(1.27127 0.00325528 0)
(1.27119 0.00249131 0)
(1.27111 0.0017355 0)
(1.27096 0.000989742 0)
(1.27076 0.000254273 0)
(1.2705 -0.000469641 0)
(1.27017 -0.0011802 0)
(1.26978 -0.00187541 0)
(1.26933 -0.00255322 0)
(1.26881 -0.00321168 0)
(1.26823 -0.003849 0)
(1.26759 -0.00446364 0)
(1.26689 -0.00505425 0)
(1.26612 -0.00561974 0)
(1.26531 -0.00615922 0)
(1.26443 -0.00667199 0)
(1.26351 -0.00715757 0)
(1.26253 -0.00761561 0)
(1.26151 -0.00804597 0)
(1.26044 -0.00844861 0)
(1.25932 -0.00882368 0)
(1.25816 -0.00917143 0)
(1.25696 -0.00949226 0)
(1.25572 -0.00978665 0)
(1.25445 -0.0100552 0)
(1.25314 -0.0102987 0)
(1.2518 -0.0105177 0)
(1.25043 -0.0107133 0)
(1.24902 -0.0108864 0)
(1.24759 -0.0110378 0)
(1.24614 -0.0111686 0)
(1.24466 -0.0112799 0)
(1.24316 -0.0113727 0)
(1.24163 -0.0114481 0)
(1.24009 -0.0115072 0)
(1.23853 -0.011551 0)
(1.23695 -0.0115807 0)
(1.23535 -0.0115972 0)
(1.23374 -0.0116016 0)
(1.23211 -0.0115949 0)
(1.23047 -0.0115781 0)
(1.22882 -0.0115521 0)
(1.22716 -0.0115179 0)
(1.22548 -0.0114762 0)
(1.2238 -0.011428 0)
(1.2221 -0.011374 0)
(1.2204 -0.0113149 0)
(1.21869 -0.0112515 0)
(1.21697 -0.0111845 0)
(1.27107 0.00325491 0)
(1.27101 0.00251255 0)
(1.27095 0.00177899 0)
(1.27083 0.00105611 0)
(1.27066 0.000344006 0)
(1.27042 -0.000356355 0)
(1.27012 -0.00104349 0)
(1.26976 -0.00171569 0)
(1.26934 -0.00237115 0)
(1.26885 -0.00300812 0)
(1.26831 -0.00362495 0)
(1.2677 -0.00422017 0)
(1.26703 -0.0047925 0)
(1.2663 -0.00534086 0)
(1.26552 -0.00586437 0)
(1.26468 -0.00636234 0)
(1.26379 -0.00683425 0)
(1.26285 -0.00727974 0)
(1.26186 -0.00769863 0)
(1.26083 -0.00809086 0)
(1.25974 -0.00845653 0)
(1.25862 -0.00879587 0)
(1.25745 -0.00910922 0)
(1.25625 -0.00939704 0)
(1.25501 -0.00965989 0)
(1.25373 -0.00989843 0)
(1.25242 -0.0101134 0)
(1.25108 -0.0103056 0)
(1.24971 -0.0104759 0)
(1.24831 -0.0106253 0)
(1.24688 -0.0107546 0)
(1.24543 -0.010865 0)
(1.24395 -0.0109574 0)
(1.24246 -0.0110328 0)
(1.24094 -0.0110924 0)
(1.23941 -0.0111371 0)
(1.23785 -0.011168 0)
(1.23628 -0.0111861 0)
(1.2347 -0.0111924 0)
(1.2331 -0.0111879 0)
(1.23148 -0.0111735 0)
(1.22985 -0.0111501 0)
(1.22821 -0.0111187 0)
(1.22656 -0.01108 0)
(1.2249 -0.0110349 0)
(1.22323 -0.0109842 0)
(1.22155 -0.0109285 0)
(1.21986 -0.0108686 0)
(1.21816 -0.0108051 0)
(1.27087 0.00324548 0)
(1.27083 0.00252478 0)
(1.27079 0.00181339 0)
(1.27069 0.00111315 0)
(1.27054 0.000424091 0)
(1.27033 -0.000253071 0)
(1.27006 -0.000917106 0)
(1.26973 -0.00156657 0)
(1.26933 -0.00219988 0)
(1.26888 -0.00281547 0)
(1.26836 -0.00341182 0)
(1.26779 -0.00398756 0)
(1.26715 -0.00454148 0)
(1.26646 -0.00507254 0)
(1.26571 -0.00557987 0)
(1.26491 -0.00606278 0)
(1.26405 -0.00652074 0)
(1.26314 -0.00695338 0)
(1.26219 -0.00736048 0)
(1.26118 -0.00774198 0)
(1.26013 -0.00809793 0)
(1.25904 -0.00842852 0)
(1.25791 -0.00873407 0)
(1.25674 -0.00901499 0)
(1.25553 -0.00927181 0)
(1.25428 -0.00950513 0)
(1.253 -0.00971566 0)
(1.25169 -0.00990415 0)
(1.25035 -0.0100715 0)
(1.24898 -0.0102184 0)
(1.24758 -0.010346 0)
(1.24616 -0.0104552 0)
(1.24471 -0.0105469 0)
(1.24324 -0.0106222 0)
(1.24175 -0.010682 0)
(1.24024 -0.0107274 0)
(1.23872 -0.0107594 0)
(1.23717 -0.0107788 0)
(1.23561 -0.0107868 0)
(1.23403 -0.0107843 0)
(1.23244 -0.0107721 0)
(1.23084 -0.0107512 0)
(1.22922 -0.0107225 0)
(1.2276 -0.0106866 0)
(1.22596 -0.0106445 0)
(1.22431 -0.0105969 0)
(1.22265 -0.0105445 0)
(1.22098 -0.0104879 0)
(1.21931 -0.0104278 0)
(1.27066 0.00322719 0)
(1.27064 0.00252823 0)
(1.27062 0.00183898 0)
(1.27055 0.00116122 0)
(1.27042 0.000494954 0)
(1.27023 -0.000159304 0)
(1.26998 -0.000800533 0)
(1.26968 -0.00142751 0)
(1.26931 -0.00203886 0)
(1.26888 -0.00263318 0)
(1.2684 -0.00320909 0)
(1.26785 -0.00376533 0)
(1.26725 -0.00430076 0)
(1.26659 -0.00481438 0)
(1.26587 -0.00530534 0)
(1.2651 -0.00577296 0)
(1.26428 -0.00621672 0)
(1.2634 -0.00663624 0)
(1.26248 -0.00703128 0)
(1.26151 -0.00740174 0)
(1.26049 -0.00774766 0)
(1.25943 -0.00806921 0)
(1.25833 -0.00836664 0)
(1.25719 -0.00864035 0)
(1.25601 -0.00889082 0)
(1.25479 -0.00911862 0)
(1.25354 -0.00932441 0)
(1.25226 -0.00950892 0)
(1.25095 -0.00967292 0)
(1.24961 -0.00981727 0)
(1.24824 -0.00994285 0)
(1.24684 -0.0100506 0)
(1.24543 -0.0101414 0)
(1.24398 -0.0102162 0)
(1.24252 -0.0102761 0)
(1.24104 -0.0103219 0)
(1.23954 -0.0103547 0)
(1.23802 -0.0103754 0)
(1.23648 -0.0103849 0)
(1.23493 -0.0103842 0)
(1.23336 -0.0103741 0)
(1.23178 -0.0103555 0)
(1.23019 -0.0103292 0)
(1.22859 -0.0102961 0)
(1.22697 -0.0102568 0)
(1.22534 -0.0102122 0)
(1.22371 -0.0101628 0)
(1.22206 -0.0101095 0)
(1.2204 -0.0100527 0)
(1.27044 0.0032002 0)
(1.27045 0.00252312 0)
(1.27045 0.00185604 0)
(1.27039 0.00120065 0)
(1.27028 0.000556987 0)
(1.27012 -7.46054e-05 0)
(1.2699 -0.000693278 0)
(1.26961 -0.00129799 0)
(1.26927 -0.00188756 0)
(1.26888 -0.00246073 0)
(1.26842 -0.00301627 0)
(1.2679 -0.00355301 0)
(1.26733 -0.00406989 0)
(1.2667 -0.00456595 0)
(1.26601 -0.00504039 0)
(1.26527 -0.00549254 0)
(1.26448 -0.00592189 0)
(1.26363 -0.00632804 0)
(1.26274 -0.00671076 0)
(1.2618 -0.00706991 0)
(1.26082 -0.00740553 0)
(1.25979 -0.00771773 0)
(1.25872 -0.00800676 0)
(1.2576 -0.00827296 0)
(1.25646 -0.0085168 0)
(1.25527 -0.00873879 0)
(1.25405 -0.00893956 0)
(1.2528 -0.0091198 0)
(1.25151 -0.00928024 0)
(1.2502 -0.00942168 0)
(1.24886 -0.00954498 0)
(1.24749 -0.00965101 0)
(1.2461 -0.00974066 0)
(1.24468 -0.00981487 0)
(1.24325 -0.00987455 0)
(1.24179 -0.00992065 0)
(1.24031 -0.00995408 0)
(1.23882 -0.00997576 0)
(1.23731 -0.00998661 0)
(1.23578 -0.0099875 0)
(1.23424 -0.0099793 0)
(1.23268 -0.00996283 0)
(1.23111 -0.00993891 0)
(1.22953 -0.00990831 0)
(1.22794 -0.00987177 0)
(1.22633 -0.00982999 0)
(1.22472 -0.00978365 0)
(1.22309 -0.00973338 0)
(1.22146 -0.00967979 0)
(1.27023 0.00316472 0)
(1.27025 0.00250966 0)
(1.27027 0.00186481 0)
(1.27024 0.00123176 0)
(1.27015 0.000610557 0)
(1.27 1.44249e-06 0)
(1.2698 -0.000594881 0)
(1.26954 -0.00117753 0)
(1.26923 -0.00174549 0)
(1.26885 -0.00229764 0)
(1.26842 -0.00283287 0)
(1.26793 -0.00335012 0)
(1.26739 -0.00384841 0)
(1.26678 -0.00432683 0)
(1.26613 -0.00478463 0)
(1.26542 -0.00522115 0)
(1.26465 -0.0056359 0)
(1.26384 -0.00602847 0)
(1.26298 -0.00639863 0)
(1.26207 -0.00674623 0)
(1.26111 -0.00707127 0)
(1.26011 -0.00737387 0)
(1.25907 -0.00765422 0)
(1.25799 -0.00791265 0)
(1.25687 -0.00814957 0)
(1.25571 -0.00836549 0)
(1.25452 -0.00856097 0)
(1.2533 -0.00873666 0)
(1.25204 -0.00889328 0)
(1.25075 -0.00903157 0)
(1.24944 -0.00915235 0)
(1.2481 -0.00925645 0)
(1.24674 -0.00934472 0)
(1.24535 -0.00941806 0)
(1.24393 -0.00947736 0)
(1.2425 -0.0095235 0)
(1.24105 -0.00955738 0)
(1.23958 -0.00957988 0)
(1.23809 -0.00959189 0)
(1.23659 -0.00959424 0)
(1.23507 -0.00958777 0)
(1.23354 -0.00957329 0)
(1.23199 -0.00955157 0)
(1.23043 -0.00952337 0)
(1.22886 -0.0094894 0)
(1.22728 -0.00945035 0)
(1.22568 -0.00940686 0)
(1.22408 -0.00935957 0)
(1.22247 -0.00930904 0)
(1.27001 0.00312094 0)
(1.27005 0.00248809 0)
(1.27009 0.00186556 0)
(1.27007 0.00125484 0)
(1.27 0.000656011 0)
(1.26988 6.92326e-05 0)
(1.2697 -0.00050491 0)
(1.26946 -0.00106567 0)
(1.26917 -0.00161216 0)
(1.26882 -0.0021434 0)
(1.26841 -0.0026584 0)
(1.26795 -0.0031562 0)
(1.26743 -0.00363587 0)
(1.26686 -0.0040966 0)
(1.26623 -0.00453765 0)
(1.26554 -0.00495841 0)
(1.26481 -0.00535839 0)
(1.26402 -0.0057372 0)
(1.26319 -0.00609459 0)
(1.26231 -0.00643041 0)
(1.26138 -0.00674465 0)
(1.26041 -0.00703739 0)
(1.2594 -0.00730881 0)
(1.25835 -0.00755921 0)
(1.25725 -0.00778897 0)
(1.25612 -0.00799854 0)
(1.25496 -0.00818848 0)
(1.25376 -0.00835939 0)
(1.25253 -0.00851193 0)
(1.25127 -0.00864683 0)
(1.24999 -0.00876485 0)
(1.24867 -0.00886679 0)
(1.24733 -0.00895347 0)
(1.24597 -0.00902573 0)
(1.24458 -0.00908443 0)
(1.24318 -0.00913042 0)
(1.24175 -0.00916457 0)
(1.2403 -0.00918772 0)
(1.23884 -0.0092007 0)
(1.23736 -0.00920435 0)
(1.23586 -0.00919946 0)
(1.23435 -0.00918681 0)
(1.23283 -0.00916716 0)
(1.23129 -0.00914122 0)
(1.22974 -0.00910969 0)
(1.22818 -0.00907324 0)
(1.22661 -0.00903249 0)
(1.22502 -0.00898804 0)
(1.22343 -0.00894045 0)
(1.26979 0.00306907 0)
(1.26985 0.00245861 0)
(1.26991 0.00185853 0)
(1.26991 0.00127017 0)
(1.26985 0.000693675 0)
(1.26975 0.000129136 0)
(1.26959 -0.000422956 0)
(1.26937 -0.000961965 0)
(1.2691 -0.00148712 0)
(1.26878 -0.00199756 0)
(1.26839 -0.00249241 0)
(1.26795 -0.00297078 0)
(1.26746 -0.00343184 0)
(1.26691 -0.00387482 0)
(1.26631 -0.00429905 0)
(1.26565 -0.00470394 0)
(1.26494 -0.00508901 0)
(1.26419 -0.00545389 0)
(1.26338 -0.00579832 0)
(1.26253 -0.00612217 0)
(1.26163 -0.00642539 0)
(1.26068 -0.00670804 0)
(1.2597 -0.00697031 0)
(1.25867 -0.00721244 0)
(1.25761 -0.00743478 0)
(1.25651 -0.00763778 0)
(1.25537 -0.00782193 0)
(1.2542 -0.00798781 0)
(1.25299 -0.00813605 0)
(1.25176 -0.00826733 0)
(1.2505 -0.00838237 0)
(1.24921 -0.00848194 0)
(1.2479 -0.00856681 0)
(1.24656 -0.00863779 0)
(1.24519 -0.0086957 0)
(1.24381 -0.00874136 0)
(1.24241 -0.00877558 0)
(1.24099 -0.0087992 0)
(1.23955 -0.008813 0)
(1.23809 -0.00881779 0)
(1.23661 -0.00881433 0)
(1.23513 -0.00880337 0)
(1.23362 -0.00878563 0)
(1.23211 -0.00876183 0)
(1.23058 -0.00873261 0)
(1.22904 -0.00869863 0)
(1.22749 -0.00866049 0)
(1.22593 -0.00861877 0)
(1.22435 -0.00857402 0)
(1.26957 0.00300932 0)
(1.26966 0.00242146 0)
(1.26972 0.00184397 0)
(1.26974 0.00127803 0)
(1.2697 0.000723866 0)
(1.26962 0.000181504 0)
(1.26948 -0.000348632 0)
(1.26928 -0.000865999 0)
(1.26903 -0.00136993 0)
(1.26872 -0.00185967 0)
(1.26836 -0.00233442 0)
(1.26795 -0.00279341 0)
(1.26748 -0.00323587 0)
(1.26695 -0.00366108 0)
(1.26637 -0.00406842 0)
(1.26574 -0.00445734 0)
(1.26506 -0.00482738 0)
(1.26433 -0.00517819 0)
(1.26355 -0.00550951 0)
(1.26272 -0.00582119 0)
(1.26185 -0.0061132 0)
(1.26093 -0.00638557 0)
(1.25997 -0.00663845 0)
(1.25897 -0.00687209 0)
(1.25793 -0.00708681 0)
(1.25686 -0.007283 0)
(1.25575 -0.00746114 0)
(1.2546 -0.00762177 0)
(1.25342 -0.00776549 0)
(1.25221 -0.00789292 0)
(1.25098 -0.00800478 0)
(1.24971 -0.00810176 0)
(1.24842 -0.00818462 0)
(1.24711 -0.00825413 0)
(1.24577 -0.00831106 0)
(1.24441 -0.00835621 0)
(1.24303 -0.00839034 0)
(1.24163 -0.00841426 0)
(1.24021 -0.00842872 0)
(1.23878 -0.00843449 0)
(1.23733 -0.00843231 0)
(1.23586 -0.0084229 0)
(1.23438 -0.00840695 0)
(1.23289 -0.00838514 0)
(1.23138 -0.00835811 0)
(1.22986 -0.00832648 0)
(1.22833 -0.00829084 0)
(1.22679 -0.00825173 0)
(1.22523 -0.0082097 0)
(1.26936 0.00294191 0)
(1.26946 0.00237687 0)
(1.26954 0.00182212 0)
(1.26957 0.0012787 0)
(1.26955 0.000746886 0)
(1.26948 0.000226676 0)
(1.26936 -0.000281568 0)
(1.26918 -0.000777378 0)
(1.26895 -0.00126017 0)
(1.26866 -0.00172928 0)
(1.26832 -0.00218402 0)
(1.26793 -0.00262366 0)
(1.26748 -0.00304752 0)
(1.26698 -0.00345495 0)
(1.26642 -0.00384535 0)
(1.26582 -0.00421823 0)
(1.26516 -0.00457314 0)
(1.26445 -0.00490974 0)
(1.2637 -0.0052278 0)
(1.26289 -0.00552717 0)
(1.26204 -0.00580778 0)
(1.26115 -0.00606968 0)
(1.26022 -0.00631299 0)
(1.25924 -0.00653794 0)
(1.25823 -0.00674482 0)
(1.25718 -0.00693399 0)
(1.25609 -0.00710592 0)
(1.25497 -0.00726109 0)
(1.25382 -0.00740006 0)
(1.25264 -0.00752346 0)
(1.25142 -0.00763192 0)
(1.25018 -0.00772613 0)
(1.24892 -0.00780679 0)
(1.24763 -0.00787464 0)
(1.24631 -0.00793042 0)
(1.24497 -0.00797487 0)
(1.24362 -0.00800875 0)
(1.24224 -0.00803281 0)
(1.24084 -0.00804778 0)
(1.23943 -0.00805439 0)
(1.238 -0.00805334 0)
(1.23656 -0.00804534 0)
(1.2351 -0.00803105 0)
(1.23362 -0.00801111 0)
(1.23214 -0.00798615 0)
(1.23064 -0.00795675 0)
(1.22913 -0.00792349 0)
(1.2276 -0.00788689 0)