/*--------------------------------*- C++ -*----------------------------------*\
  =========                 |
  \\      /  F ield         | OpenFOAM: The Open Source CFD Toolbox
   \\    /   O peration     | Website:  https://openfoam.org
    \\  /    A nd           | Version:  7
     \\/     M anipulation  |
\*---------------------------------------------------------------------------*/
FoamFile
{
    version     2.0;
    format      ascii;
    class       volScalarField;
    location    "20";
    object      p;
}
// * * * * * * * * * * * * * * * * * * * * * * * * * * * * * * * * * * * * * //

dimensions      [0 2 -2 0 0 0 0];

internalField   nonuniform List<scalar> 
2625
(
-0.0373153
-0.0364489
-0.0355947
-0.0347523
-0.0339214
-0.0331016
-0.0322927
-0.0314943
-0.0307061
-0.0299278
-0.0291591
-0.0283996
-0.0276491
-0.0269073
-0.0261739
-0.0254487
-0.0247313
-0.0240215
-0.0233191
-0.0226238
-0.0219354
-0.0212536
-0.0205781
-0.0199088
-0.0192454
-0.0185877
-0.0179354
-0.0172882
-0.016646
-0.0160085
-0.0153754
-0.0147465
-0.0141213
-0.0134997
-0.0128813
-0.0122658
-0.0116526
-0.0110415
-0.010432
-0.00982345
-0.00921542
-0.00860726
-0.00799824
-0.00738768
-0.00677443
-0.0061583
-0.00553608
-0.0049118
-0.00427081
-0.00364354
-0.00295093
-0.00237211
-0.00148296
-0.00124242
0.000522719
-0.00100058
0.00475857
-0.037331
-0.036464
-0.0356093
-0.0347664
-0.033935
-0.0331148
-0.0323054
-0.0315066
-0.0307179
-0.0299392
-0.02917
-0.0284102
-0.0276593
-0.0269171
-0.0261833
-0.0254577
-0.02474
-0.0240299
-0.0233272
-0.0226316
-0.0219428
-0.0212607
-0.020585
-0.0199154
-0.0192517
-0.0185937
-0.0179412
-0.0172938
-0.0166514
-0.0160137
-0.0153804
-0.0147512
-0.0141259
-0.0135042
-0.0128856
-0.0122699
-0.0116566
-0.0110454
-0.0104357
-0.00982712
-0.00921901
-0.00861079
-0.00800171
-0.00739112
-0.00677785
-0.00616172
-0.00553951
-0.00491528
-0.00427436
-0.00364716
-0.00295477
-0.00237588
-0.00148754
-0.00124591
0.000515576
-0.0010006
0.00474036
-0.0373623
-0.0364943
-0.0356385
-0.0347946
-0.0339623
-0.0331411
-0.0323308
-0.0315311
-0.0307416
-0.029962
-0.029192
-0.0284313
-0.0276796
-0.0269367
-0.0262022
-0.0254759
-0.0247574
-0.0240467
-0.0233433
-0.022647
-0.0219577
-0.021275
-0.0205987
-0.0199285
-0.0192643
-0.0186058
-0.0179528
-0.017305
-0.0166621
-0.016024
-0.0153903
-0.0147608
-0.0141351
-0.013513
-0.0128942
-0.0122782
-0.0116646
-0.0110532
-0.0104433
-0.0098345
-0.00922623
-0.00861787
-0.00800869
-0.00739803
-0.00678472
-0.00616858
-0.00554643
-0.00492225
-0.0042815
-0.0036544
-0.00296247
-0.00238345
-0.00149671
-0.0012529
0.000501296
-0.00100066
0.00470403
-0.0374094
-0.0365398
-0.0356825
-0.0348371
-0.0340032
-0.0331806
-0.032369
-0.0315679
-0.030777
-0.0299961
-0.0292249
-0.028463
-0.0277101
-0.0269661
-0.0262304
-0.025503
-0.0247836
-0.0240718
-0.0233674
-0.0226702
-0.0219799
-0.0212963
-0.0206192
-0.0199482
-0.0192833
-0.018624
-0.0179703
-0.0173217
-0.0166782
-0.0160395
-0.0154052
-0.0147751
-0.0141489
-0.0135263
-0.012907
-0.0122905
-0.0116766
-0.0110648
-0.0104546
-0.00984554
-0.00923703
-0.00862848
-0.00801915
-0.00740838
-0.00679501
-0.00617886
-0.00555677
-0.00493269
-0.00429219
-0.00366524
-0.00297399
-0.00239475
-0.00151042
-0.00126334
0.000479955
-0.00100073
0.0046498
-0.0374723
-0.0366006
-0.0357412
-0.0348937
-0.0340579
-0.0332334
-0.0324199
-0.031617
-0.0308244
-0.0300418
-0.0292688
-0.0285053
-0.0277509
-0.0270053
-0.0262682
-0.0255393
-0.0248184
-0.0241053
-0.0233996
-0.0227011
-0.0220096
-0.0213249
-0.0206466
-0.0199745
-0.0193085
-0.0186482
-0.0179935
-0.0173441
-0.0166997
-0.0160601
-0.015425
-0.0147941
-0.0141672
-0.013544
-0.012924
-0.012307
-0.0116926
-0.0110803
-0.0104697
-0.00986022
-0.00925139
-0.00864257
-0.00803303
-0.00742211
-0.00680867
-0.0061925
-0.00557049
-0.00494653
-0.00430635
-0.0036796
-0.00298926
-0.00240972
-0.00152858
-0.00127714
0.000451664
-0.00100079
0.00457797
-0.0375511
-0.0366767
-0.0358147
-0.0349647
-0.0341264
-0.0332995
-0.0324836
-0.0316784
-0.0308836
-0.0300989
-0.0293239
-0.0285583
-0.0278019
-0.0270543
-0.0263153
-0.0255847
-0.0248621
-0.0241472
-0.0234399
-0.0227398
-0.0220468
-0.0213605
-0.0206808
-0.0200073
-0.01934
-0.0186785
-0.0180225
-0.0173719
-0.0167264
-0.0160857
-0.0154497
-0.0148179
-0.0141901
-0.013566
-0.0129453
-0.0123275
-0.0117124
-0.0110995
-0.0104884
-0.00987847
-0.00926924
-0.00866008
-0.00805027
-0.00743916
-0.00682561
-0.00620942
-0.0055875
-0.00496369
-0.0043239
-0.00369739
-0.00300817
-0.00242826
-0.00155111
-0.0012942
0.00041657
-0.00100082
0.00448897
-0.0376459
-0.0367683
-0.0359031
-0.0350501
-0.0342089
-0.033379
-0.0325603
-0.0317524
-0.0309549
-0.0301675
-0.02939
-0.0286219
-0.0278631
-0.0271133
-0.026372
-0.0256392
-0.0249144
-0.0241975
-0.0234882
-0.0227862
-0.0220913
-0.0214032
-0.0207218
-0.0200467
-0.0193778
-0.0187147
-0.0180573
-0.0174053
-0.0167584
-0.0161165
-0.0154792
-0.0148463
-0.0142174
-0.0135923
-0.0129706
-0.0123521
-0.0117362
-0.0111225
-0.0105107
-0.00990023
-0.0092905
-0.00868093
-0.0080708
-0.00745945
-0.00684576
-0.00622952
-0.00560771
-0.00498406
-0.00434474
-0.0037185
-0.00303063
-0.00245023
-0.00157787
-0.0013144
0.000374855
-0.00100077
0.00438331
-0.0377569
-0.0368755
-0.0360066
-0.03515
-0.0343053
-0.033472
-0.03265
-0.0318388
-0.0310382
-0.0302478
-0.0294673
-0.0286963
-0.0279347
-0.0271821
-0.0264382
-0.0257028
-0.0249756
-0.0242563
-0.0235446
-0.0228404
-0.0221433
-0.0214531
-0.0207696
-0.0200926
-0.0194218
-0.0187569
-0.0180978
-0.0174441
-0.0167957
-0.0161523
-0.0155135
-0.0148793
-0.0142492
-0.0136229
-0.0130001
-0.0123805
-0.0117637
-0.0111492
-0.0105366
-0.00992542
-0.0093151
-0.00870503
-0.00809451
-0.00748287
-0.00686901
-0.00625271
-0.005631
-0.00500753
-0.00436875
-0.0037428
-0.0030565
-0.00247549
-0.0016087
-0.00133758
0.00032673
-0.00100062
0.00426159
-0.0378841
-0.0369983
-0.0361253
-0.0352645
-0.0344158
-0.0335786
-0.0327528
-0.0319379
-0.0311336
-0.0303397
-0.0295558
-0.0287815
-0.0280167
-0.0272609
-0.026514
-0.0257756
-0.0250455
-0.0243234
-0.0236091
-0.0229022
-0.0222026
-0.0215101
-0.0208243
-0.020145
-0.019472
-0.0188051
-0.0181439
-0.0174884
-0.0168382
-0.016193
-0.0155527
-0.0149168
-0.0142853
-0.0136576
-0.0130336
-0.0124128
-0.0117949
-0.0111794
-0.0105659
-0.00995394
-0.00934293
-0.00873228
-0.0081213
-0.00750931
-0.00689525
-0.00627885
-0.00565726
-0.00503395
-0.00439578
-0.00377013
-0.00308562
-0.00250388
-0.00164345
-0.00136357
0.000272439
-0.0010003
0.00412451
-0.0380277
-0.037137
-0.0362591
-0.0353937
-0.0345404
-0.0336988
-0.0328687
-0.0320496
-0.0312412
-0.0304433
-0.0296555
-0.0288775
-0.028109
-0.0273497
-0.0265993
-0.0258576
-0.0251242
-0.024399
-0.0236816
-0.0229718
-0.0222694
-0.0215741
-0.0208856
-0.0202038
-0.0195284
-0.0188591
-0.0181957
-0.0175381
-0.0168858
-0.0162387
-0.0155965
-0.0149589
-0.0143257
-0.0136965
-0.013071
-0.0124488
-0.0118297
-0.0112131
-0.0105986
-0.0099857
-0.0093739
-0.00876258
-0.00815105
-0.00753865
-0.00692434
-0.00630781
-0.00568633
-0.00506319
-0.00442569
-0.00380033
-0.00311783
-0.00253521
-0.00168193
-0.00139217
0.000212252
-0.000999764
0.00397283
-0.0381877
-0.0372915
-0.0364083
-0.0355377
-0.0346793
-0.0338327
-0.0329978
-0.032174
-0.0313611
-0.0305587
-0.0297665
-0.0289843
-0.0282117
-0.0274485
-0.0266942
-0.0259488
-0.0252118
-0.024483
-0.0237622
-0.0230492
-0.0223436
-0.0216452
-0.0209538
-0.0202691
-0.0195909
-0.018919
-0.0182532
-0.0175931
-0.0169385
-0.0162892
-0.0156449
-0.0150054
-0.0143703
-0.0137393
-0.0131122
-0.0124886
-0.011868
-0.0112501
-0.0106345
-0.0100206
-0.00940787
-0.00879578
-0.00818364
-0.00757076
-0.00695614
-0.00633945
-0.00571806
-0.00509508
-0.0044583
-0.00383321
-0.00315296
-0.00256927
-0.00172393
-0.00142319
0.000146459
-0.000998946
0.00380739
-0.0383642
-0.037462
-0.0365728
-0.0356964
-0.0348324
-0.0339804
-0.0331401
-0.0323111
-0.0314931
-0.0306858
-0.0298889
-0.029102
-0.0283249
-0.0275572
-0.0267987
-0.0260491
-0.0253081
-0.0245754
-0.0238509
-0.0231342
-0.0224251
-0.0217233
-0.0210286
-0.0203408
-0.0196596
-0.0189848
-0.0183161
-0.0176533
-0.0169962
-0.0163445
-0.0156979
-0.0150562
-0.014419
-0.0137862
-0.0131572
-0.0125319
-0.0119098
-0.0112905
-0.0106735
-0.0100584
-0.00944473
-0.00883178
-0.00821892
-0.00760548
-0.00699051
-0.0063736
-0.0057523
-0.00512944
-0.00449344
-0.0038686
-0.0031908
-0.00260586
-0.00176925
-0.00145638
7.53764e-05
-0.000997775
0.00362907
-0.0385573
-0.0376484
-0.0367528
-0.0358701
-0.0349999
-0.0341419
-0.0332957
-0.032461
-0.0316375
-0.0308248
-0.0300226
-0.0292305
-0.0284484
-0.0276759
-0.0269127
-0.0261586
-0.0254132
-0.0246762
-0.0239475
-0.0232268
-0.0225138
-0.0218083
-0.02111
-0.0204188
-0.0197342
-0.0190562
-0.0183845
-0.0177188
-0.0170589
-0.0164045
-0.0157554
-0.0151112
-0.0144718
-0.0138368
-0.0132059
-0.0125787
-0.0119548
-0.0113339
-0.0107155
-0.0100992
-0.00948435
-0.00887041
-0.00825676
-0.00764268
-0.00702729
-0.0064101
-0.00578886
-0.00516609
-0.00453092
-0.00390628
-0.00323116
-0.00264473
-0.00181764
-0.00149152
-6.67249e-07
-0.000996177
0.00343882
-0.0378508
-0.0369482
-0.0360586
-0.0351817
-0.0343171
-0.0334645
-0.0326236
-0.0317941
-0.0309754
-0.0301675
-0.0293699
-0.0285824
-0.0278046
-0.0270363
-0.0262772
-0.0255269
-0.0247854
-0.0240522
-0.0233271
-0.0226099
-0.0219003
-0.0211981
-0.020503
-0.0198149
-0.0191334
-0.0184583
-0.0177894
-0.0171264
-0.0164691
-0.0158172
-0.0151705
-0.0145286
-0.0138912
-0.0132581
-0.0126288
-0.0120031
-0.0113804
-0.0107605
-0.0101427
-0.00952659
-0.00891156
-0.008297
-0.00768219
-0.00706631
-0.00644878
-0.00582758
-0.00520484
-0.00457056
-0.00394603
-0.00327383
-0.00268566
-0.00186889
-0.00152834
-8.13284e-05
-0.000994067
0.00323762
-0.0380692
-0.0371589
-0.0362618
-0.0353777
-0.0345061
-0.0336466
-0.032799
-0.0319629
-0.0311379
-0.0303237
-0.0295201
-0.0287267
-0.0279432
-0.0271694
-0.0264049
-0.0256494
-0.0249028
-0.0241647
-0.0234349
-0.0227131
-0.0219991
-0.0212926
-0.0205935
-0.0199014
-0.0192161
-0.0185374
-0.017865
-0.0171987
-0.0165382
-0.0158833
-0.0152337
-0.0145891
-0.0139492
-0.0133137
-0.0126822
-0.0120544
-0.0114298
-0.0108081
-0.0101888
-0.0095713
-0.00895505
-0.00833949
-0.00772385
-0.00710741
-0.00648946
-0.00586827
-0.0052455
-0.00461216
-0.00398765
-0.00331861
-0.0027284
-0.00192275
-0.00156659
-0.000166256
-0.000991354
0.00302649
-0.0383034
-0.0373849
-0.0364799
-0.0355879
-0.0347087
-0.0338419
-0.032987
-0.0321438
-0.031312
-0.0304912
-0.029681
-0.0288813
-0.0280917
-0.0273118
-0.0265415
-0.0257805
-0.0250284
-0.024285
-0.0235501
-0.0228234
-0.0221047
-0.0213936
-0.0206901
-0.0199937
-0.0193043
-0.0186217
-0.0179456
-0.0172757
-0.0166118
-0.0159536
-0.0153009
-0.0146534
-0.0140107
-0.0133726
-0.0127387
-0.0121087
-0.011482
-0.0108584
-0.0102374
-0.00961834
-0.00900075
-0.00838408
-0.0077675
-0.00715042
-0.00653196
-0.00591075
-0.00528787
-0.00465551
-0.00403091
-0.00336527
-0.00277267
-0.00197898
-0.00160598
-0.000255095
-0.000987939
0.00280646
-0.0385533
-0.0376261
-0.0367126
-0.0358123
-0.034925
-0.0340502
-0.0331876
-0.0323369
-0.0314977
-0.0306697
-0.0298526
-0.0290461
-0.0282499
-0.0274637
-0.0266872
-0.0259201
-0.0251622
-0.0244132
-0.0236728
-0.0229408
-0.0222169
-0.021501
-0.0207927
-0.0200917
-0.019398
-0.0187112
-0.018031
-0.0173573
-0.0166897
-0.016028
-0.015372
-0.0147213
-0.0140757
-0.0134348
-0.0127982
-0.0121657
-0.0115369
-0.0109112
-0.0102882
-0.00966756
-0.00904851
-0.0084306
-0.00781298
-0.00719517
-0.00657611
-0.00595484
-0.00533175
-0.00470043
-0.00407558
-0.0034136
-0.00281824
-0.00203736
-0.00164625
-0.000347491
-0.000983713
0.00257855
-0.0388188
-0.0378823
-0.0369597
-0.0360506
-0.0351546
-0.0342714
-0.0334006
-0.0325419
-0.0316948
-0.0308592
-0.0300347
-0.029221
-0.0284178
-0.0276247
-0.0268416
-0.0260681
-0.025304
-0.0245489
-0.0238027
-0.0230651
-0.0223358
-0.0216146
-0.0209012
-0.0201954
-0.0194969
-0.0188056
-0.0181211
-0.0174433
-0.0167718
-0.0161064
-0.0154468
-0.0147927
-0.0141439
-0.0135
-0.0128606
-0.0122255
-0.0115942
-0.0109663
-0.0103413
-0.00971883
-0.00909817
-0.00847891
-0.00786012
-0.00724149
-0.00662172
-0.00600035
-0.00537694
-0.00474672
-0.00412144
-0.00346341
-0.00286483
-0.00209765
-0.0016871
-0.000443096
-0.000978557
0.0023438
-0.0390995
-0.0381533
-0.0372211
-0.0363027
-0.0353976
-0.0345054
-0.0336259
-0.0327586
-0.0319033
-0.0310597
-0.0302273
-0.0294059
-0.0285952
-0.0277949
-0.0270048
-0.0262244
-0.0254537
-0.0246922
-0.0239398
-0.0231962
-0.0224611
-0.0217343
-0.0210155
-0.0203045
-0.0196011
-0.018905
-0.0182159
-0.0175337
-0.016858
-0.0161885
-0.0155251
-0.0148675
-0.0142152
-0.0135681
-0.0129258
-0.0122878
-0.0116539
-0.0110236
-0.0103965
-0.009772
-0.00914958
-0.00852884
-0.00790876
-0.00728923
-0.00666863
-0.00604712
-0.00542325
-0.0047942
-0.00416826
-0.00351449
-0.00291218
-0.00215962
-0.00172823
-0.000541573
-0.000972339
0.00210322
-0.0393953
-0.0384388
-0.0374966
-0.0365683
-0.0356536
-0.034752
-0.0338633
-0.0329871
-0.032123
-0.0312708
-0.0304301
-0.0296006
-0.028782
-0.0279741
-0.0271765
-0.0263889
-0.0256112
-0.0248429
-0.0240839
-0.023334
-0.0225927
-0.02186
-0.0211355
-0.020419
-0.0197103
-0.0190091
-0.0183152
-0.0176283
-0.0169481
-0.0162745
-0.015607
-0.0149455
-0.0142896
-0.0136391
-0.0129935
-0.0123526
-0.0117159
-0.011083
-0.0104535
-0.00982693
-0.0092026
-0.00858026
-0.00795874
-0.00733822
-0.00671665
-0.00609497
-0.00547049
-0.00484268
-0.00421582
-0.00356666
-0.00296003
-0.00222307
-0.00176935
-0.000642606
-0.000964913
0.00185778
-0.0387386
-0.0377858
-0.0368472
-0.0359224
-0.0350109
-0.0341125
-0.0332269
-0.0323536
-0.0314924
-0.030643
-0.0298049
-0.0289781
-0.0281621
-0.0273566
-0.0265614
-0.0257763
-0.0250009
-0.024235
-0.0234783
-0.0227306
-0.0219916
-0.0212611
-0.0205388
-0.0198245
-0.0191179
-0.0184189
-0.017727
-0.0170421
-0.016364
-0.0156923
-0.0150267
-0.014367
-0.0137128
-0.0130638
-0.0124197
-0.01178
-0.0111444
-0.0105123
-0.00988348
-0.00925709
-0.00863302
-0.00800992
-0.0073883
-0.00676563
-0.00614374
-0.00551846
-0.00489199
-0.00426391
-0.00361973
-0.0030081
-0.00228782
-0.00181015
-0.000745897
-0.000956115
0.00160842
-0.0390522
-0.0380885
-0.0371391
-0.0362037
-0.0352819
-0.0343734
-0.0334779
-0.032595
-0.0317244
-0.0308657
-0.0300188
-0.0291832
-0.0283587
-0.027545
-0.0267418
-0.0259489
-0.025166
-0.0243928
-0.023629
-0.0228745
-0.0221289
-0.0213921
-0.0206637
-0.0199435
-0.0192313
-0.0185268
-0.0178297
-0.0171399
-0.016457
-0.0157807
-0.0151109
-0.0144471
-0.013789
-0.0131364
-0.0124889
-0.0118461
-0.0112075
-0.0105728
-0.00994152
-0.00931292
-0.00868698
-0.00806215
-0.00743934
-0.0068154
-0.00619328
-0.005567
-0.00494198
-0.0043123
-0.00367355
-0.00305614
-0.00235368
-0.00185033
-0.000851181
-0.000945757
0.00135601
-0.0393794
-0.0384042
-0.0374436
-0.0364972
-0.0355647
-0.0346457
-0.0337398
-0.0328468
-0.0319664
-0.0310982
-0.0302418
-0.0293971
-0.0285638
-0.0277415
-0.0269299
-0.0261289
-0.025338
-0.0245572
-0.0237861
-0.0230244
-0.0222719
-0.0215284
-0.0207936
-0.0200672
-0.019349
-0.0186388
-0.0179363
-0.0172413
-0.0165534
-0.0158724
-0.015198
-0.0145299
-0.0138678
-0.0132113
-0.0125602
-0.011914
-0.0112724
-0.0106348
-0.0100009
-0.00936995
-0.00874201
-0.0081153
-0.00749121
-0.00686582
-0.00624345
-0.00561592
-0.00499251
-0.00436079
-0.00372797
-0.00310387
-0.00242052
-0.00188955
-0.000958232
-0.00093363
0.00110136
-0.0397196
-0.0387326
-0.0377604
-0.0368026
-0.0358589
-0.034929
-0.0340124
-0.0331089
-0.0322182
-0.03134
-0.0304739
-0.0296197
-0.0287771
-0.0279458
-0.0271255
-0.0263159
-0.0255169
-0.024728
-0.0239492
-0.02318
-0.0224203
-0.0216698
-0.0209283
-0.0201955
-0.0194711
-0.0187549
-0.0180467
-0.0173461
-0.016653
-0.015967
-0.0152878
-0.0146152
-0.0139489
-0.0132884
-0.0126335
-0.0119838
-0.0113388
-0.0106982
-0.0100616
-0.00942807
-0.00879799
-0.00816923
-0.00754377
-0.00691674
-0.00629413
-0.00566506
-0.00504343
-0.00440918
-0.00378287
-0.00315104
-0.00248821
-0.00192748
-0.00106686
-0.000919486
0.00084517
-0.0400726
-0.0390734
-0.0380892
-0.0371196
-0.0361643
-0.035223
-0.0342953
-0.033381
-0.0324797
-0.031591
-0.0307148
-0.0298507
-0.0289985
-0.0281578
-0.0273284
-0.02651
-0.0257023
-0.0249052
-0.0241182
-0.0233413
-0.022574
-0.0218163
-0.0210677
-0.0203281
-0.0195973
-0.0188748
-0.0181606
-0.0174543
-0.0167557
-0.0160645
-0.0153804
-0.014703
-0.0140322
-0.0133675
-0.0127086
-0.0120551
-0.0114068
-0.0107629
-0.0101234
-0.00948716
-0.00885482
-0.00822382
-0.00759691
-0.00696804
-0.00634519
-0.00571427
-0.00509465
-0.00445727
-0.00383815
-0.00319738
-0.00255668
-0.00196379
-0.00117695
-0.000903043
0.00058806
-0.039426
-0.0384294
-0.0374477
-0.0364805
-0.0355275
-0.0345883
-0.0336627
-0.0327504
-0.031851
-0.0309643
-0.0300899
-0.0292277
-0.0283772
-0.0275384
-0.0267108
-0.0258942
-0.0250884
-0.0242931
-0.023508
-0.0227329
-0.0219676
-0.0212117
-0.0204651
-0.0197275
-0.0189985
-0.0182781
-0.0175658
-0.0168615
-0.0161648
-0.0154755
-0.0147932
-0.0141177
-0.0134485
-0.0127855
-0.0121281
-0.0114761
-0.0108288
-0.0101863
-0.00954711
-0.00891239
-0.00827897
-0.00765054
-0.00701958
-0.00639653
-0.00576339
-0.00514607
-0.00450486
-0.00389374
-0.00324262
-0.00262587
-0.0019981
-0.00128841
-0.00088397
0.000330521
-0.03979
-0.0387808
-0.0377866
-0.0368071
-0.035842
-0.034891
-0.0339538
-0.0330301
-0.0321196
-0.031222
-0.0303371
-0.0294645
-0.028604
-0.0277553
-0.0269182
-0.0260923
-0.0252775
-0.0244735
-0.02368
-0.0228968
-0.0221236
-0.0213602
-0.0206062
-0.0198615
-0.0191259
-0.0183989
-0.0176804
-0.0169701
-0.0162678
-0.015573
-0.0148856
-0.0142052
-0.0135314
-0.012864
-0.0122025
-0.0115467
-0.0108958
-0.0102501
-0.00960784
-0.00897061
-0.00833458
-0.00770456
-0.00707125
-0.00644808
-0.00581229
-0.00519761
-0.00455177
-0.00394958
-0.00328649
-0.00269579
-0.00203004
-0.00140125
-0.000861875
7.29065e-05
-0.040165
-0.0391428
-0.0381358
-0.0371437
-0.0361663
-0.0352031
-0.034254
-0.0333185
-0.0323966
-0.0314878
-0.0305919
-0.0297086
-0.0288377
-0.0279789
-0.0271319
-0.0262965
-0.0254724
-0.0246594
-0.0238572
-0.0230655
-0.0222842
-0.0215129
-0.0207514
-0.0199994
-0.0192567
-0.018523
-0.0177981
-0.0170816
-0.0163733
-0.0156729
-0.0149801
-0.0142946
-0.013616
-0.0129441
-0.0122783
-0.0116185
-0.0109638
-0.0103147
-0.00966926
-0.00902941
-0.00839054
-0.00775891
-0.00712294
-0.00649977
-0.00586084
-0.00524924
-0.0045978
-0.00400568
-0.0033287
-0.00276649
-0.00205917
-0.00151555
-0.000836299
-0.000184587
-0.0405505
-0.0395151
-0.038495
-0.0374901
-0.0364999
-0.0355243
-0.0345628
-0.0336154
-0.0326817
-0.0317613
-0.0308542
-0.0299599
-0.0290782
-0.028209
-0.0273518
-0.0265065
-0.0256729
-0.0248505
-0.0240393
-0.0232389
-0.0224492
-0.0216697
-0.0209004
-0.0201409
-0.0193909
-0.0186502
-0.0179186
-0.0171957
-0.0164813
-0.0157751
-0.0150767
-0.0143859
-0.0137023
-0.0130256
-0.0123553
-0.0116914
-0.0110328
-0.0103802
-0.00973129
-0.00908872
-0.00844679
-0.00781351
-0.00717457
-0.00655154
-0.00590889
-0.00530092
-0.00464278
-0.00406205
-0.00336896
-0.00283806
-0.00208506
-0.00163148
-0.000806685
-0.000441947
-0.0398971
-0.0388638
-0.0378457
-0.0368425
-0.0358541
-0.0348802
-0.0339204
-0.0329746
-0.0320424
-0.0311236
-0.0302181
-0.0293254
-0.0284453
-0.0275777
-0.0267223
-0.0258787
-0.0250468
-0.0242263
-0.0234169
-0.0226184
-0.0218306
-0.0210531
-0.0202858
-0.0195284
-0.0187805
-0.0180419
-0.0173124
-0.0165917
-0.0158794
-0.0151752
-0.0144789
-0.0137901
-0.0131086
-0.0124336
-0.0117654
-0.0111027
-0.0104464
-0.00979386
-0.00914847
-0.00850323
-0.00786833
-0.00722603
-0.00660337
-0.00595634
-0.00535265
-0.00468651
-0.00411875
-0.00340696
-0.00291066
-0.0021072
-0.00174931
-0.000772374
-0.000699368
-0.0402886
-0.0392417
-0.0382102
-0.0371939
-0.0361924
-0.0352056
-0.0342332
-0.033275
-0.0323307
-0.0314001
-0.0304829
-0.0295789
-0.0286878
-0.0278094
-0.0269435
-0.0260897
-0.025248
-0.0244179
-0.0235993
-0.0227918
-0.0219953
-0.0212095
-0.0204342
-0.019669
-0.0189137
-0.018168
-0.0174316
-0.0167043
-0.0159858
-0.0152756
-0.0145737
-0.0138795
-0.0131928
-0.012513
-0.0118404
-0.0111733
-0.0105133
-0.0098569
-0.00920864
-0.00855981
-0.00792332
-0.00727725
-0.00665524
-0.00600305
-0.00540446
-0.00472879
-0.00417588
-0.00344237
-0.00298452
-0.00212504
-0.00186944
-0.0007326
-0.000957257
-0.0406891
-0.0396284
-0.0385833
-0.0375535
-0.0365388
-0.0355389
-0.0345536
-0.0335828
-0.032626
-0.0316833
-0.0307542
-0.0298385
-0.0289361
-0.0280467
-0.02717
-0.0263058
-0.0254539
-0.024614
-0.0237859
-0.0229692
-0.0221638
-0.0213695
-0.0205858
-0.0198126
-0.0190497
-0.0182966
-0.0175532
-0.0168192
-0.0160942
-0.0153779
-0.0146701
-0.0139703
-0.0132784
-0.0125936
-0.0119163
-0.0112447
-0.0105809
-0.00992037
-0.00926918
-0.00861647
-0.00797848
-0.00732814
-0.00670717
-0.00604892
-0.0054564
-0.00476943
-0.00423359
-0.00347484
-0.00305996
-0.00213796
-0.00199238
-0.000686459
-0.00121627
-0.0410981
-0.0400235
-0.0389646
-0.0379211
-0.0368929
-0.0358797
-0.0348813
-0.0338975
-0.0329282
-0.0319729
-0.0310317
-0.0301042
-0.0291902
-0.0282894
-0.0274017
-0.0265268
-0.0256645
-0.0248145
-0.0239766
-0.0231505
-0.022336
-0.0215328
-0.0207406
-0.0199593
-0.0191884
-0.0184278
-0.0176771
-0.0169361
-0.0162045
-0.0154819
-0.014768
-0.0140625
-0.0133652
-0.0126751
-0.0119931
-0.0113169
-0.010649
-0.00998422
-0.00933007
-0.00867315
-0.00803379
-0.00737864
-0.00675917
-0.00609381
-0.00550857
-0.0048082
-0.00429208
-0.00350397
-0.00313733
-0.00214529
-0.00211877
-0.000632891
-0.00147735
-0.0404268
-0.0393539
-0.0382966
-0.0372546
-0.0362279
-0.0352161
-0.0342192
-0.0332369
-0.032269
-0.0313153
-0.0303757
-0.0294498
-0.0285375
-0.0276385
-0.0267526
-0.0258797
-0.0250193
-0.0241714
-0.0233356
-0.0225117
-0.0216994
-0.0208985
-0.0201088
-0.0193298
-0.0185614
-0.0178033
-0.0170552
-0.0163167
-0.0155875
-0.0148675
-0.014156
-0.0134531
-0.0127577
-0.0120708
-0.0113897
-0.0107178
-0.0100484
-0.0093913
-0.0087298
-0.00808927
-0.00742865
-0.00681129
-0.00613759
-0.00556106
-0.00484487
-0.00435157
-0.00352933
-0.00321713
-0.00214623
-0.00224943
-0.000570636
-0.00174177
-0.0408377
-0.0397507
-0.0386793
-0.0376234
-0.0365829
-0.0355576
-0.0345473
-0.0335518
-0.032571
-0.0316046
-0.0306526
-0.0297146
-0.0287904
-0.0278799
-0.0269828
-0.026099
-0.025228
-0.0243698
-0.0235241
-0.0226906
-0.0218691
-0.0210593
-0.0202609
-0.0194736
-0.0186973
-0.0179315
-0.017176
-0.0164306
-0.0156947
-0.0149683
-0.0142507
-0.0135421
-0.0128411
-0.0121493
-0.011463
-0.010787
-0.0101128
-0.00945281
-0.00878631
-0.00814489
-0.00747806
-0.00686357
-0.00618009
-0.00561403
-0.00487916
-0.00441239
-0.0035504
-0.00329995
-0.00213982
-0.00238545
-0.00049804
-0.00201129
-0.0412543
-0.0401531
-0.0390676
-0.0379977
-0.0369433
-0.0359043
-0.0348804
-0.0338716
-0.0328777
-0.0318985
-0.0309339
-0.0299835
-0.0290474
-0.0281252
-0.0272167
-0.0263217
-0.0254401
-0.0245714
-0.0237156
-0.0228723
-0.0220413
-0.0212224
-0.0204152
-0.0196196
-0.0188351
-0.0180616
-0.0172986
-0.016546
-0.0158032
-0.0150704
-0.0143465
-0.0136321
-0.0129254
-0.0122285
-0.0115369
-0.0108568
-0.0101775
-0.00951469
-0.00884272
-0.0082008
-0.00752687
-0.00691623
-0.00622123
-0.0056678
-0.0049108
-0.00447505
-0.00356661
-0.0033867
-0.0021249
-0.00252833
-0.000412906
-0.00228819
-0.0405623
-0.0394627
-0.0383787
-0.0373104
-0.0362575
-0.03522
-0.0341977
-0.0331906
-0.0321984
-0.031221
-0.0302582
-0.0293099
-0.0283758
-0.0274557
-0.0265495
-0.0256568
-0.0247775
-0.0239114
-0.0230582
-0.0222175
-0.0213893
-0.0205732
-0.0197688
-0.018976
-0.0181945
-0.0174239
-0.0166639
-0.0159142
-0.0151746
-0.0144443
-0.0137239
-0.0130113
-0.0123092
-0.0116121
-0.0109278
-0.010243
-0.00957754
-0.0088995
-0.00825753
-0.00757544
-0.00696975
-0.00626122
-0.00572286
-0.00493982
-0.00454015
-0.00357767
-0.00347814
-0.00210074
-0.00267913
-0.000313986
-0.00257441
-0.0409937
-0.0398792
-0.0387806
-0.0376975
-0.0366301
-0.0355783
-0.0345418
-0.0335207
-0.0325148
-0.0315239
-0.0305479
-0.0295866
-0.0286398
-0.0277074
-0.0267892
-0.0258849
-0.0249943
-0.0241172
-0.0232533
-0.0224024
-0.0215643
-0.0207385
-0.019925
-0.0191233
-0.0183333
-0.0175545
-0.0167867
-0.0160294
-0.0152828
-0.0145455
-0.0138188
-0.0130998
-0.0123922
-0.0116891
-0.0110004
-0.0103096
-0.00964146
-0.00895667
-0.00831492
-0.0076236
-0.00702377
-0.00629982
-0.00577863
-0.00496608
-0.00460681
-0.00358388
-0.00357287
-0.00206859
-0.00283504
-0.00020506
-0.00286953
-0.0414422
-0.0403119
-0.0391974
-0.0380987
-0.0370157
-0.0359484
-0.0348968
-0.0338606
-0.0328399
-0.0318346
-0.0308444
-0.0298693
-0.0289091
-0.0279635
-0.0270325
-0.0261158
-0.0252132
-0.0243244
-0.0234493
-0.0225875
-0.0217389
-0.0209031
-0.0200799
-0.0192689
-0.01847
-0.0176826
-0.0169067
-0.0161415
-0.0153875
-0.0146431
-0.0139099
-0.0131843
-0.012471
-0.0117617
-0.0110686
-0.0103716
-0.00970096
-0.00900901
-0.00836803
-0.00766673
-0.00707391
-0.00633309
-0.00583137
-0.0049864
-0.00467196
-0.00358294
-0.00366855
-0.0020271
-0.00299433
-8.54624e-05
-0.0031774
-0.0417466
-0.0406061
-0.0394813
-0.0383721
-0.0372788
-0.0362012
-0.0351392
-0.034093
-0.0330624
-0.0320472
-0.0310475
-0.030063
-0.0290936
-0.0281392
-0.0271995
-0.0262744
-0.0253637
-0.0244671
-0.0235844
-0.0227154
-0.0218597
-0.0210172
-0.0201875
-0.0193704
-0.0185655
-0.0177724
-0.0169912
-0.0162209
-0.0154621
-0.0147129
-0.0139755
-0.0132454
-0.0125289
-0.011815
-0.0111199
-0.0104177
-0.00974724
-0.00904806
-0.00841168
-0.00769825
-0.00711875
-0.0063548
-0.00588421
-0.00499237
-0.00474557
-0.00355955
-0.00378737
-0.0019449
-0.00320341
0.000114278
-0.00354377
-0.0417447
-0.0406054
-0.0394819
-0.0383742
-0.0372823
-0.0362062
-0.0351459
-0.0341012
-0.0330722
-0.0320586
-0.0310604
-0.0300775
-0.0291097
-0.0281567
-0.0272185
-0.0262949
-0.0253855
-0.0244902
-0.0236088
-0.022741
-0.0218866
-0.0210452
-0.0202166
-0.0194004
-0.0185966
-0.0178044
-0.0170241
-0.0162545
-0.0154966
-0.0147478
-0.0140115
-0.0132813
-0.0125663
-0.0118514
-0.0111588
-0.0104537
-0.00978813
-0.009082
-0.00845584
-0.00772717
-0.00716931
-0.00637304
-0.00594808
-0.00498897
-0.00483731
-0.00351297
-0.00393685
-0.00181238
-0.00346914
0.000418913
-0.00389735
-0.0417339
-0.0405965
-0.0394747
-0.0383686
-0.0372783
-0.0362036
-0.0351445
-0.0341011
-0.0330731
-0.0320606
-0.0310634
-0.0300813
-0.0291143
-0.0281621
-0.0272246
-0.0263015
-0.0253927
-0.024498
-0.0236171
-0.0227497
-0.0218957
-0.0210546
-0.0202264
-0.0194105
-0.0186069
-0.0178149
-0.0170349
-0.0162654
-0.0155078
-0.014759
-0.0140229
-0.0132926
-0.0125779
-0.0118626
-0.0111708
-0.0104644
-0.00980062
-0.00909197
-0.00846948
-0.00773541
-0.00718542
-0.00637776
-0.00596939
-0.00498656
-0.00486936
-0.00349612
-0.00399055
-0.00176651
-0.00356456
0.00052127
-0.00404432
-0.0417742
-0.0406366
-0.0395145
-0.038408
-0.037317
-0.0362417
-0.0351818
-0.0341375
-0.0331086
-0.0320951
-0.0310968
-0.0301137
-0.0291455
-0.0281922
-0.0272536
-0.0263294
-0.0254195
-0.0245236
-0.0236416
-0.0227731
-0.0219179
-0.0210758
-0.0202465
-0.0194296
-0.018625
-0.0178321
-0.0170511
-0.0162806
-0.0155222
-0.0147725
-0.0140358
-0.0133045
-0.0125894
-0.011873
-0.0111811
-0.0104735
-0.00981027
-0.00909953
-0.00847914
-0.00774121
-0.00719632
-0.00638095
-0.00598379
-0.00498507
-0.00489147
-0.0034854
-0.00402829
-0.00173718
-0.0036314
0.000585522
-0.00416713
-0.0418251
-0.0406869
-0.0395641
-0.0384566
-0.0373646
-0.0362881
-0.035227
-0.0341814
-0.0331512
-0.0321362
-0.0311366
-0.030152
-0.0291824
-0.0282276
-0.0272875
-0.0263618
-0.0254505
-0.0245532
-0.0236697
-0.0227999
-0.0219434
-0.0210999
-0.0202693
-0.0194512
-0.0186454
-0.0178512
-0.0170692
-0.0162976
-0.0155381
-0.0147874
-0.0140498
-0.0133175
-0.0126017
-0.0118843
-0.0111921
-0.0104831
-0.00982037
-0.0091075
-0.00848906
-0.00774731
-0.00720729
-0.00638438
-0.00599804
-0.00498387
-0.00491314
-0.0034752
-0.00406507
-0.00170896
-0.00369643
0.000647401
-0.00428714
-0.0418726
-0.0407338
-0.0396103
-0.038502
-0.0374091
-0.0363316
-0.0352695
-0.0342227
-0.0331913
-0.0321752
-0.0311742
-0.0301883
-0.0292174
-0.0282613
-0.0273198
-0.0263929
-0.0254802
-0.0245816
-0.0236968
-0.0228257
-0.021968
-0.0211233
-0.0202915
-0.0194722
-0.0186653
-0.01787
-0.0170869
-0.0163143
-0.015554
-0.0148022
-0.0140638
-0.0133305
-0.0126142
-0.0118957
-0.0112033
-0.0104929
-0.00983077
-0.00911574
-0.00849935
-0.00775366
-0.00721869
-0.00638798
-0.0060128
-0.00498264
-0.00493547
-0.0034646
-0.00410281
-0.00167968
-0.00376316
0.000711703
-0.00440744
-0.041918
-0.0407788
-0.0396547
-0.0385458
-0.0374521
-0.0363736
-0.0353105
-0.0342627
-0.0332302
-0.0322128
-0.0312107
-0.0302236
-0.0292514
-0.028294
-0.0273513
-0.0264231
-0.0255091
-0.0246093
-0.0237233
-0.0228509
-0.021992
-0.0211462
-0.0203133
-0.0194928
-0.0186848
-0.0178885
-0.0171044
-0.0163308
-0.0155695
-0.0148168
-0.0140777
-0.0133434
-0.0126266
-0.0119069
-0.0112145
-0.0105027
-0.00984111
-0.00912394
-0.00850958
-0.00776
-0.00723005
-0.00639158
-0.00602749
-0.00498143
-0.00495768
-0.00345405
-0.00414033
-0.00165055
-0.0038295
0.000775597
-0.00452642
-0.0419632
-0.0408236
-0.039699
-0.0385893
-0.0374948
-0.0364155
-0.0353514
-0.0343025
-0.0332689
-0.0322504
-0.0312471
-0.0302587
-0.0292853
-0.0283267
-0.0273827
-0.0264532
-0.025538
-0.0246369
-0.0237497
-0.0228761
-0.022016
-0.021169
-0.0203349
-0.0195133
-0.0187043
-0.0179069
-0.0171218
-0.0163472
-0.015585
-0.0148313
-0.0140914
-0.0133562
-0.0126388
-0.0119181
-0.0112255
-0.0105123
-0.00985132
-0.00913204
-0.00851968
-0.00776625
-0.00724121
-0.00639513
-0.00604193
-0.00498025
-0.0049795
-0.0034437
-0.00417717
-0.00162204
-0.00389464
0.000838061
-0.0046434
-0.0420083
-0.0408683
-0.0397431
-0.0386328
-0.0375375
-0.0364573
-0.0353922
-0.0343423
-0.0333076
-0.032288
-0.0312834
-0.0302939
-0.0293192
-0.0283593
-0.0274141
-0.0264833
-0.0255668
-0.0246645
-0.023776
-0.0229012
-0.0220399
-0.0211917
-0.0203565
-0.0195338
-0.0187237
-0.0179253
-0.0171392
-0.0163635
-0.0156005
-0.0148458
-0.0141051
-0.013369
-0.012651
-0.0119293
-0.0112364
-0.0105219
-0.00986144
-0.00914008
-0.00852965
-0.00777245
-0.00725223
-0.00639866
-0.00605615
-0.00497912
-0.00500097
-0.00343358
-0.00421338
-0.00159413
-0.00395866
0.000899155
-0.00475841
-0.0420531
-0.0409127
-0.039787
-0.0386761
-0.03758
-0.0364989
-0.0354329
-0.034382
-0.0333461
-0.0323253
-0.0313196
-0.0303288
-0.0293529
-0.0283918
-0.00295098