/*--------------------------------*- C++ -*----------------------------------*\
  =========                 |
  \\      /  F ield         | OpenFOAM: The Open Source CFD Toolbox
   \\    /   O peration     | Website:  https://openfoam.org
    \\  /    A nd           | Version:  7
     \\/     M anipulation  |
\*---------------------------------------------------------------------------*/
FoamFile
{
    version     2.0;
    format      ascii;
    class       volScalarField;
    location    "25";
    object      p;
}
// * * * * * * * * * * * * * * * * * * * * * * * * * * * * * * * * * * * * * //

dimensions      [0 2 -2 0 0 0 0];

internalField   nonuniform List<scalar> 
656
(
-0.0319886
-0.0295062
-0.0271482
-0.0249056
-0.0227742
-0.0207426
-0.0188126
-0.0169643
-0.0152157
-0.0135223
-0.0119443
-0.010371
-0.0089703
-0.00746271
-0.00628314
-0.00473768
-0.00390631
-0.00210898
-0.0019306
0.000507335
-0.0497654
-0.0463763
-0.0431596
-0.0401075
-0.037212
-0.0344649
-0.0318582
-0.0293834
-0.0270335
-0.0247993
-0.0226765
-0.0206531
-0.0187314
-0.0168905
-0.0151497
-0.0134622
-0.0118917
-0.0103216
-0.00892978
-0.00741949
-0.00625501
-0.00469209
-0.00389598
-0.00204121
-0.00195865
0.000648585
-0.0496265
-0.0462329
-0.0430152
-0.0399648
-0.0370732
-0.0343316
-0.0317316
-0.0292644
-0.0269226
-0.0246967
-0.0225823
-0.0205671
-0.0186534
-0.0168198
-0.0150864
-0.0134048
-0.0118415
-0.0102745
-0.00889123
-0.00737839
-0.00622838
-0.00464869
-0.00388647
-0.00197631
-0.00198606
0.00078386
-0.0494788
-0.0460824
-0.0428649
-0.0398173
-0.0369305
-0.0341952
-0.0316026
-0.0291434
-0.0268101
-0.024593
-0.0224872
-0.0204804
-0.0185749
-0.0167489
-0.015023
-0.0133474
-0.0117914
-0.0102278
-0.00885285
-0.00733807
-0.00620192
-0.00460678
-0.00387675
-0.00191431
-0.00201177
0.000912797
-0.0493536
-0.0459563
-0.04274
-0.0396951
-0.0368123
-0.0340819
-0.031495
-0.029042
-0.0267151
-0.0245046
-0.0224054
-0.0204051
-0.018506
-0.0166859
-0.014966
-0.0132955
-0.0117452
-0.010185
-0.00881661
-0.00730097
-0.00617593
-0.00456889
-0.00386499
-0.00185983
-0.00202949
0.00103038
-0.049395
-0.0459907
-0.0427673
-0.0397156
-0.0368262
-0.0340897
-0.0314971
-0.029039
-0.0267076
-0.0244931
-0.0223905
-0.0203876
-0.0184861
-0.0166645
-0.0149433
-0.0132719
-0.0117213
-0.01016
-0.00879328
-0.00727362
-0.00615561
-0.00453419
-0.00385295
-0.0018028
-0.00204092
0.00117375
-0.0489026
-0.0455292
-0.0423375
-0.0393175
-0.0364594
-0.0337535
-0.0311903
-0.0287604
-0.0264557
-0.0242663
-0.0221871
-0.0202058
-0.0183244
-0.0165211
-0.0148166
-0.01316
-0.0116236
-0.0100728
-0.00871971
-0.00720297
-0.00610407
-0.00446708
-0.00382852
-0.00170996
-0.00206981
0.00137179
-0.0481972
-0.0448775
-0.0417381
-0.0387686
-0.0359588
-0.0332989
-0.0307791
-0.02839
-0.0261232
-0.0239691
-0.0219224
-0.0199711
-0.0181169
-0.0163384
-0.0146565
-0.0130198
-0.0115023
-0.0099658
-0.0086304
-0.00711909
-0.00604331
-0.00439115
-0.00380137
-0.00160953
-0.00210509
0.00157782
-0.0475403
-0.0442715
-0.0411811
-0.0382587
-0.0354938
-0.0328763
-0.0303965
-0.0280447
-0.0258129
-0.0236912
-0.0216744
-0.0197505
-0.0179215
-0.0161659
-0.014505
-0.0128867
-0.0113869
-0.00986372
-0.008545
-0.00703864
-0.00598515
-0.00431786
-0.00377587
-0.00151162
-0.00214099
0.00178393
-0.0469462
-0.0437231
-0.0406768
-0.0377965
-0.0350719
-0.0324924
-0.0300485
-0.0277303
-0.0255298
-0.0234372
-0.0214473
-0.0195483
-0.017742
-0.0160071
-0.0143651
-0.0127636
-0.0112799
-0.00976896
-0.00846561
-0.00696355
-0.00593105
-0.00424873
-0.00375268
-0.00141755
-0.00217699
0.00198788
-0.0463881
-0.0432081
-0.0402033
-0.0373627
-0.0346757
-0.032132
-0.0297216
-0.0274349
-0.0252637
-0.0231984
-0.0212337
-0.0193579
-0.0175729
-0.0158575
-0.0142333
-0.0126476
-0.011179
-0.00967951
-0.00839069
-0.00689256
-0.0058801
-0.00418302
-0.00373142
-0.00132691
-0.00221321
0.00218882
-0.0458618
-0.0427227
-0.0397571
-0.036954
-0.0343026
-0.0317925
-0.0294137
-0.0271566
-0.025013
-0.0229733
-0.0210322
-0.0191783
-0.0174133
-0.0157162
-0.0141088
-0.012538
-0.0110837
-0.00959493
-0.00831987
-0.00682539
-0.00583207
-0.00412062
-0.00371189
-0.00123986
-0.00224937
0.00238549
-0.0486548
-0.0453706
-0.0422697
-0.0393408
-0.0365727
-0.0339545
-0.0314756
-0.0291262
-0.0268967
-0.0247787
-0.0227628
-0.0208438
-0.0190102
-0.0172638
-0.0155838
-0.0139921
-0.0124351
-0.0109942
-0.00951554
-0.00825339
-0.00676228
-0.00578709
-0.00406176
-0.00369405
-0.00115685
-0.00228505
0.00257641
-0.048163
-0.0449158
-0.0418505
-0.0389556
-0.0362198
-0.0336322
-0.0311822
-0.02886
-0.0266559
-0.0245615
-0.0225676
-0.0206689
-0.0188541
-0.017125
-0.0154608
-0.0138835
-0.0123394
-0.0109108
-0.0094416
-0.00819147
-0.00670343
-0.00574529
-0.00400667
-0.00367787
-0.00107834
-0.00231985
0.00276005
-0.0477111
-0.044498
-0.0414655
-0.0386018
-0.0358957
-0.0333362
-0.0309127
-0.0286153
-0.0264344
-0.0243617
-0.022388
-0.0205078
-0.0187103
-0.0169969
-0.0153472
-0.0137832
-0.012251
-0.0108338
-0.00937325
-0.00813425
-0.00664899
-0.00570672
-0.00395552
-0.0036633
-0.00100471
-0.00235338
0.00293491
-0.0472993
-0.0441174
-0.0411148
-0.0382796
-0.0356005
-0.0330666
-0.0306671
-0.0283923
-0.0262325
-0.0241795
-0.022224
-0.0203608
-0.0185789
-0.0168799
-0.0152434
-0.0136915
-0.0121701
-0.0107634
-0.00931066
-0.00808183
-0.00659908
-0.00567146
-0.00390847
-0.00365028
-0.000936361
-0.00238528
0.0030995
-0.046928
-0.0437744
-0.0407988
-0.0379893
-0.0353345
-0.0328235
-0.0304457
-0.0281912
-0.0260504
-0.024015
-0.022076
-0.020228
-0.0184601
-0.0167741
-0.0151495
-0.0136085
-0.0120968
-0.0106995
-0.00925393
-0.00803434
-0.00655382
-0.00563956
-0.00386567
-0.00363876
-0.000873657
-0.00241518
0.00325238
-0.0465977
-0.0434693
-0.0405177
-0.037731
-0.0350979
-0.0326073
-0.0302487
-0.0280122
-0.0258882
-0.0238685
-0.021944
-0.0201096
-0.0183542
-0.0166797
-0.0150656
-0.0135344
-0.0120314
-0.0106424
-0.00920321
-0.00799187
-0.00651331
-0.00561108
-0.00382726
-0.00362867
-0.00081695
-0.00244273
0.00339217
-0.0463084
-0.0432022
-0.0402716
-0.037505
-0.0348908
-0.032418
-0.0300761
-0.0278553
-0.025746
-0.02374
-0.0218284
-0.0200057
-0.0182612
-0.0165967
-0.0149919
-0.0134692
-0.0119738
-0.0105922
-0.00915859
-0.00795451
-0.00647765
-0.00558606
-0.00379337
-0.00361998
-0.000766565
-0.00246761
0.00351757
-0.0460604
-0.0429732
-0.0400607
-0.0373112
-0.0347132
-0.0322557
-0.0299282
-0.0277208
-0.0256241
-0.0236298
-0.021729
-0.0199164
-0.0181813
-0.0165255
-0.0149286
-0.0134132
-0.0119243
-0.010549
-0.00912017
-0.00792234
-0.00644693
-0.00556454
-0.0037641
-0.00361262
-0.000722797
-0.00248952
0.00362742
-0.0458538
-0.0427825
-0.039885
-0.0371498
-0.0345652
-0.0321205
-0.0298049
-0.0276087
-0.0255224
-0.0235379
-0.0216461
-0.0198419
-0.0181146
-0.0164659
-0.0148756
-0.0133663
-0.0118829
-0.0105128
-0.00908804
-0.00789543
-0.00642122
-0.00554655
-0.00373957
-0.00360656
-0.000685907
-0.00250821
0.00372065
-0.0456885
-0.0426299
-0.0397445
-0.0370207
-0.0344469
-0.0320123
-0.0297062
-0.0275189
-0.025441
-0.0234642
-0.0215797
-0.0197822
-0.0180612
-0.0164182
-0.0148332
-0.0133287
-0.0118497
-0.0104839
-0.00906225
-0.00787384
-0.00640058
-0.00553213
-0.00371983
-0.00360175
-0.000656118
-0.00252344
0.00379637
-0.0455646
-0.0425155
-0.0396392
-0.0369239
-0.0343582
-0.0319311
-0.0296322
-0.0274516
-0.0253799
-0.023409
-0.0215299
-0.0197375
-0.018021
-0.0163824
-0.0148013
-0.0133005
-0.0118247
-0.0104621
-0.00904287
-0.00785761
-0.00638505
-0.00552129
-0.00370498
-0.00359818
-0.000633614
-0.00253503
0.00385382
-0.045482
-0.0424393
-0.039569
-0.0368594
-0.0342991
-0.0318771
-0.0295829
-0.0274068
-0.0253392
-0.0233722
-0.0214967
-0.0197076
-0.0179943
-0.0163584
-0.0147801
-0.0132817
-0.0118081
-0.0104475
-0.00902993
-0.00784677
-0.00637469
-0.00551406
-0.00369505
-0.00359582
-0.000618533
-0.00254284
0.00389244
-0.0454407
-0.0424012
-0.0395339
-0.0368272
-0.0342695
-0.0318501
-0.0295583
-0.0273843
-0.0253189
-0.0233538
-0.0214801
-0.0196926
-0.0179809
-0.0163465
-0.0147694
-0.0132723
-0.0117997
-0.0104402
-0.00902346
-0.00784135
-0.0063695
-0.00551045
-0.00369007
-0.00359464
-0.00061097
-0.00254677
)
;

boundaryField
{
    inlet
    {
        type            zeroGradient;
    }
    outlet
    {
        type            fixedValue;
        value           uniform 0;
    }
    cylinder
    {
        type            zeroGradient;
    }
    top
    {
        type            symmetryPlane;
    }
    bottom
    {
        type            symmetryPlane;
    }
    defaultFaces
    {
        type            empty;
    }
    procBoundary7to3
    {
        type            processor;
        value           nonuniform List<scalar> 
27
(
-0.0321268
-0.0296366
-0.02727
-0.0250186
-0.0228782
-0.0208377
-0.018899
-0.0170427
-0.015286
-0.0135862
-0.0120003
-0.0104235
-0.00901345
-0.00750863
-0.00631314
-0.0047859
-0.00391759
-0.00218011
-0.00190159
0.000359835
-0.0499059
-0.0465219
-0.0433068
-0.0402534
-0.0373544
-0.0346019
-0.0346019
)
;
    }
    procBoundary7to6
    {
        type            processor;
        value           nonuniform List<scalar> 
25
(
-0.0533343
-0.0532039
-0.053063
-0.052941
-0.0529893
-0.0524673
-0.0517073
-0.0509981
-0.0503569
-0.0497543
-0.0491858
-0.0491858
-0.0521338
-0.0516038
-0.0511164
-0.050672
-0.0502713
-0.0499146
-0.0496022
-0.0493343
-0.049111
-0.0489323
-0.0487983
-0.0487091
-0.0486645
)
;
    }
    procBoundary7to11
    {
        type            processor;
        value           nonuniform List<scalar> 
28
(
-0.0454407
-0.0424012
-0.0395339
-0.0368272
-0.0342695
-0.0318501
-0.0295583
-0.0273843
-0.0253189
-0.0233538
-0.0214801
-0.0196926
-0.0179809
-0.0163465
-0.0147694
-0.0132723
-0.0117997
-0.0104402
-0.00902345
-0.00784135
-0.0063695
-0.00551045
-0.00369007
-0.00359464
-0.000610969
-0.00254677
0.00391185
0.00391185
)
;
    }
}


// ************************************************************************* //
