/*--------------------------------*- C++ -*----------------------------------*\
  =========                 |
  \\      /  F ield         | OpenFOAM: The Open Source CFD Toolbox
   \\    /   O peration     | Website:  https://openfoam.org
    \\  /    A nd           | Version:  7
     \\/     M anipulation  |
\*---------------------------------------------------------------------------*/
FoamFile
{
    version     2.0;
    format      ascii;
    class       volScalarField;
    location    "55";
    object      p;
}
// * * * * * * * * * * * * * * * * * * * * * * * * * * * * * * * * * * * * * //

dimensions      [0 2 -2 0 0 0 0];

internalField   nonuniform List<scalar> 
2625
(
-0.0808997
-0.0784729
-0.0760949
-0.0737658
-0.0714857
-0.0692546
-0.0670723
-0.0649387
-0.0628536
-0.0608166
-0.0588272
-0.0568851
-0.0549896
-0.0531401
-0.051336
-0.154262
-0.166681
-0.164975
-0.164078
-0.162967
-0.161313
-0.159335
-0.157077
-0.1546
-0.151953
-0.149176
-0.146302
-0.143357
-0.140362
-0.137335
-0.13429
-0.131238
-0.128189
-0.12515
-0.122128
-0.119126
-0.116151
-0.113205
-0.11029
-0.10741
-0.104567
-0.101762
-0.0989972
-0.0962734
-0.0935921
-0.0909542
-0.0883606
-0.0858122
-0.0833095
-0.0808532
-0.0784436
-0.0760812
-0.0737662
-0.0714987
-0.0692789
-0.0671067
-0.0649821
-0.0629047
-0.0608745
-0.0588909
-0.0569537
-0.0550623
-0.0532162
-0.0514148
-0.153567
-0.164211
-0.162793
-0.161843
-0.160791
-0.159242
-0.157383
-0.155257
-0.152912
-0.150395
-0.147743
-0.144987
-0.142153
-0.139262
-0.136332
-0.133377
-0.130408
-0.127437
-0.124469
-0.121513
-0.118574
-0.115655
-0.112761
-0.109896
-0.107061
-0.10426
-0.101494
-0.0987644
-0.0960736
-0.0934227
-0.0908128
-0.0882449
-0.0857201
-0.083239
-0.0808024
-0.0784107
-0.0760646
-0.0737643
-0.07151
-0.069302
-0.0671404
-0.065025
-0.0629558
-0.0609327
-0.0589552
-0.0570232
-0.0551362
-0.0532936
-0.051495
-0.152696
-0.161761
-0.160595
-0.15961
-0.15861
-0.157157
-0.155411
-0.15341
-0.151193
-0.148803
-0.146274
-0.143636
-0.140914
-0.138128
-0.135296
-0.132432
-0.129549
-0.126657
-0.123763
-0.120875
-0.117999
-0.115139
-0.1123
-0.109485
-0.106697
-0.103939
-0.101212
-0.0985202
-0.0958636
-0.0932442
-0.0906634
-0.0881223
-0.0856219
-0.0831633
-0.0807472
-0.0783742
-0.076045
-0.0737599
-0.0715195
-0.0693238
-0.0671731
-0.0650675
-0.0630068
-0.0609911
-0.0590201
-0.0570935
-0.055211
-0.0533722
-0.0515766
-0.151649
-0.159321
-0.158372
-0.157373
-0.156419
-0.155056
-0.153418
-0.151536
-0.149444
-0.147179
-0.144772
-0.142251
-0.13964
-0.13696
-0.134227
-0.131457
-0.12866
-0.125849
-0.12303
-0.120213
-0.117401
-0.114602
-0.111819
-0.109056
-0.106316
-0.103603
-0.100918
-0.0982643
-0.0956431
-0.0930564
-0.0905057
-0.0879923
-0.0855174
-0.0830821
-0.0806873
-0.0783337
-0.0760221
-0.073753
-0.0715269
-0.0693441
-0.0672048
-0.0651093
-0.0630576
-0.0610497
-0.0590854
-0.0571645
-0.0552869
-0.053452
-0.0516596
-0.150432
-0.156884
-0.156119
-0.155126
-0.154215
-0.15294
-0.151404
-0.149638
-0.147666
-0.145523
-0.143237
-0.140832
-0.138333
-0.135759
-0.133127
-0.13045
-0.127742
-0.125013
-0.122272
-0.119526
-0.116781
-0.114044
-0.111319
-0.108609
-0.10592
-0.103252
-0.10061
-0.0979962
-0.0954118
-0.0928589
-0.0903395
-0.0878548
-0.0854064
-0.0829952
-0.0806225
-0.0782891
-0.0759958
-0.0737433
-0.0715321
-0.0693627
-0.0672354
-0.0651505
-0.0631081
-0.0611083
-0.0591511
-0.0572362
-0.0553637
-0.053533
-0.051744
-0.14905
-0.154441
-0.153832
-0.152864
-0.151997
-0.150805
-0.149369
-0.147713
-0.14586
-0.143837
-0.141669
-0.13938
-0.136993
-0.134525
-0.131994
-0.129413
-0.126794
-0.124149
-0.121487
-0.118814
-0.116138
-0.113465
-0.110799
-0.108145
-0.105506
-0.102887
-0.100289
-0.0977158
-0.0951692
-0.0926515
-0.0901643
-0.0877095
-0.0852884
-0.0829024
-0.0805526
-0.0782402
-0.0759659
-0.0737306
-0.0715349
-0.0693795
-0.0672647
-0.0651908
-0.0631582
-0.0611669
-0.059217
-0.0573085
-0.0554413
-0.0536151
-0.0518296
-0.14751
-0.151986
-0.151509
-0.150582
-0.14976
-0.148651
-0.147312
-0.145764
-0.144026
-0.14212
-0.140069
-0.137896
-0.13562
-0.133259
-0.130829
-0.128345
-0.125817
-0.123258
-0.120675
-0.118077
-0.115472
-0.112864
-0.110259
-0.107661
-0.105076
-0.102506
-0.0999535
-0.0974225
-0.0949152
-0.0924337
-0.08998
-0.087556
-0.0851633
-0.0828033
-0.0804774
-0.0781867
-0.0759322
-0.0737148
-0.0715353
-0.0693943
-0.0672925
-0.0652302
-0.0632077
-0.0612254
-0.0592832
-0.0573813
-0.0555197
-0.0536982
-0.0519165
-0.145822
-0.149514
-0.149148
-0.148277
-0.147505
-0.146477
-0.145233
-0.143791
-0.142165
-0.140374
-0.138439
-0.13638
-0.134215
-0.131961
-0.129634
-0.127246
-0.124811
-0.122338
-0.119837
-0.117316
-0.114782
-0.112241
-0.109698
-0.107159
-0.104628
-0.102109
-0.0996035
-0.0971162
-0.0946493
-0.0922053
-0.0897863
-0.0873942
-0.0850308
-0.0826978
-0.0803966
-0.0781284
-0.0758944
-0.0736956
-0.0715329
-0.0694071
-0.0673188
-0.0652685
-0.0632566
-0.0612836
-0.0593495
-0.0574546
-0.0555988
-0.0537822
-0.0520046
-0.143993
-0.14702
-0.146749
-0.145947
-0.145228
-0.144282
-0.143131
-0.141793
-0.140277
-0.1386
-0.13678
-0.134834
-0.132779
-0.130632
-0.128408
-0.126118
-0.123775
-0.12139
-0.118972
-0.116529
-0.114068
-0.111596
-0.109118
-0.106639
-0.104163
-0.101695
-0.0992389
-0.0967966
-0.0943714
-0.0919661
-0.0895828
-0.0872237
-0.0848907
-0.0825856
-0.0803099
-0.0780651
-0.0758524
-0.0736729
-0.0715277
-0.0694175
-0.0673433
-0.0653055
-0.0633047
-0.0613414
-0.0594158
-0.0575281
-0.0556785
-0.0538671
-0.0520937
-0.142034
-0.144503
-0.144312
-0.143589
-0.142929
-0.142066
-0.141008
-0.139772
-0.138364
-0.136799
-0.135091
-0.133258
-0.131313
-0.129273
-0.127151
-0.12496
-0.122712
-0.120416
-0.118082
-0.115718
-0.113331
-0.110929
-0.108516
-0.106099
-0.10368
-0.101266
-0.0988594
-0.0964634
-0.0940812
-0.0917157
-0.0893693
-0.0870443
-0.0847427
-0.0824664
-0.0802172
-0.0779966
-0.0758059
-0.0736464
-0.0715193
-0.0694255
-0.0673658
-0.0653411
-0.0633518
-0.0613986
-0.0594819
-0.0576018
-0.0557588
-0.0539527
-0.0521838
-0.139952
-0.141958
-0.141839
-0.141204
-0.140607
-0.139827
-0.138863
-0.137727
-0.136427
-0.134971
-0.133376
-0.131653
-0.129818
-0.127885
-0.125866
-0.123774
-0.12162
-0.119414
-0.117165
-0.114882
-0.112571
-0.11024
-0.107894
-0.105539
-0.10318
-0.100821
-0.0984648
-0.0961164
-0.0937785
-0.091454
-0.0891456
-0.0868557
-0.0845865
-0.0823401
-0.0801182
-0.0779226
-0.0757548
-0.0736161
-0.0715077
-0.0694308
-0.0673864
-0.0653751
-0.0633979
-0.0614553
-0.0595477
-0.0576757
-0.0558394
-0.0540391
-0.0522749
-0.137759
-0.139387
-0.13933
-0.13879
-0.138262
-0.137567
-0.136696
-0.135661
-0.134465
-0.133119
-0.131634
-0.130022
-0.128295
-0.126468
-0.124553
-0.12256
-0.120501
-0.118386
-0.116223
-0.114021
-0.111788
-0.109529
-0.107252
-0.104961
-0.102662
-0.100358
-0.0980551
-0.0957555
-0.0934631
-0.0911808
-0.0889116
-0.0866579
-0.0844221
-0.0822064
-0.0800128
-0.0778431
-0.0756988
-0.0735816
-0.0714927
-0.0694334
-0.0674046
-0.0654075
-0.0634427
-0.0615111
-0.0596132
-0.0577494
-0.0559203
-0.054126
-0.0523668
-0.135463
-0.136788
-0.136789
-0.136348
-0.135895
-0.135286
-0.134509
-0.133573
-0.132482
-0.131244
-0.129867
-0.128364
-0.126746
-0.125025
-0.123212
-0.121319
-0.119355
-0.117332
-0.115256
-0.113137
-0.110981
-0.108797
-0.106589
-0.104364
-0.102126
-0.0998797
-0.0976301
-0.0953806
-0.0931349
-0.090896
-0.0886669
-0.0864505
-0.0842491
-0.0820652
-0.0799007
-0.0777577
-0.0756378
-0.0735428
-0.071474
-0.0694329
-0.0674205
-0.065438
-0.0634862
-0.061566
-0.0596781
-0.057823
-0.0560013
-0.0542133
-0.0524594
-0.133074
-0.134161
-0.134218
-0.13388
-0.133506
-0.132984
-0.132302
-0.131465
-0.130478
-0.129346
-0.128077
-0.126682
-0.125172
-0.123556
-0.121846
-0.120052
-0.118185
-0.116253
-0.114265
-0.112229
-0.110153
-0.108043
-0.105906
-0.103747
-0.101572
-0.0993846
-0.0971899
-0.0949917
-0.0927937
-0.0905993
-0.0884116
-0.0862335
-0.0840675
-0.0819162
-0.0797818
-0.0776663
-0.0755716
-0.0734995
-0.0714516
-0.0694292
-0.0674338
-0.0654664
-0.0635281
-0.0616198
-0.0597423
-0.0578963
-0.0560824
-0.054301
-0.0525525
-0.130601
-0.131509
-0.131619
-0.131386
-0.131096
-0.130664
-0.130076
-0.129339
-0.128454
-0.127428
-0.126266
-0.124978
-0.123574
-0.122063
-0.120455
-0.118761
-0.116989
-0.11515
-0.11325
-0.111299
-0.109303
-0.107269
-0.105204
-0.103112
-0.101001
-0.0988731
-0.0967345
-0.0945887
-0.0924396
-0.0902908
-0.0881455
-0.0860067
-0.0838771
-0.0817593
-0.0796558
-0.0775687
-0.0755
-0.0734516
-0.0714251
-0.0694222
-0.0674443
-0.0654926
-0.0635682
-0.0616723
-0.0598057
-0.0579691
-0.0561633
-0.0543888
-0.0526461
-0.128054
-0.128834
-0.128997
-0.128871
-0.128668
-0.128326
-0.127834
-0.127196
-0.126413
-0.125491
-0.124435
-0.123253
-0.121954
-0.120547
-0.119042
-0.117447
-0.115771
-0.114024
-0.112213
-0.110347
-0.108432
-0.106474
-0.104482
-0.102459
-0.100412
-0.0983455
-0.096264
-0.0941717
-0.0920727
-0.0899705
-0.0878686
-0.08577
-0.0836778
-0.0815945
-0.0795228
-0.0774648
-0.0754228
-0.0733988
-0.0713945
-0.0694117
-0.0674519
-0.0655164
-0.0636065
-0.0617234
-0.0598681
-0.0580413
-0.056244
-0.0544767
-0.0527401
-0.125443
-0.126138
-0.126355
-0.126336
-0.126224
-0.125974
-0.125577
-0.125038
-0.124356
-0.123537
-0.122586
-0.121509
-0.120315
-0.119011
-0.117607
-0.116111
-0.114531
-0.112877
-0.111155
-0.109374
-0.10754
-0.10566
-0.103741
-0.101788
-0.0998069
-0.0978022
-0.0957787
-0.093741
-0.091693
-0.0896384
-0.0875809
-0.0855236
-0.0834695
-0.0814216
-0.0793825
-0.0773545
-0.07534
-0.0733411
-0.0713597
-0.0693976
-0.0674564
-0.0655377
-0.0636428
-0.061773
-0.0599293
-0.0581127
-0.0563242
-0.0545645
-0.0528341
-0.122778
-0.123426
-0.123697
-0.123785
-0.123766
-0.123608
-0.123308
-0.122867
-0.122286
-0.121569
-0.120721
-0.119748
-0.118657
-0.117456
-0.116153
-0.114755
-0.113271
-0.111709
-0.110077
-0.108381
-0.106629
-0.104828
-0.102983
-0.1011
-0.0991853
-0.0972434
-0.095279
-0.0932967
-0.0913007
-0.0892947
-0.0872824
-0.0852673
-0.0832523
-0.0812406
-0.0792349
-0.0772377
-0.0752514
-0.0732783
-0.0713204
-0.0693796
-0.0674577
-0.0655563
-0.0636768
-0.0618207
-0.0599892
-0.0581832
-0.0564039
-0.054652
-0.0529282
-0.120067
-0.120699
-0.121028
-0.121222
-0.121297
-0.121233
-0.121029
-0.120685
-0.120204
-0.119589
-0.118843
-0.117973
-0.116984
-0.115885
-0.114681
-0.113381
-0.111993
-0.110523
-0.10898
-0.10737
-0.1057
-0.103977
-0.102207
-0.100396
-0.0985481
-0.0966697
-0.0947652
-0.0928393
-0.090896
-0.0889395
-0.0869734
-0.0850012
-0.0830262
-0.0810515
-0.07908
-0.0771143
-0.0751569
-0.0732103
-0.0712765
-0.0693576
-0.0674556
-0.065572
-0.0637085
-0.0618666
-0.0600475
-0.0582526
-0.0564827
-0.054739
-0.0530222
-0.117322
-0.117964
-0.118354
-0.118651
-0.118821
-0.118851
-0.118742
-0.118496
-0.118114
-0.117599
-0.116955
-0.116186
-0.115298
-0.114299
-0.113194
-0.111991
-0.110698
-0.10932
-0.107866
-0.106342
-0.104755
-0.103111
-0.101416
-0.0996756
-0.0978959
-0.0960817
-0.0942379
-0.092369
-0.0904794
-0.0885731
-0.086654
-0.0847256
-0.0827913
-0.0808544
-0.0789178
-0.0769843
-0.0750566
-0.073137
-0.071228
-0.0693317
-0.0674499
-0.0655847
-0.0637377
-0.0619104
-0.0601043
-0.0583206
-0.0565607
-0.0548254
-0.0531158
-0.114551
-0.115226
-0.115677
-0.116076
-0.116342
-0.116466
-0.116452
-0.116303
-0.116019
-0.115603
-0.115058
-0.114389
-0.113602
-0.112701
-0.111694
-0.110588
-0.109388
-0.108102
-0.106737
-0.105299
-0.103794
-0.102229
-0.100609
-0.098941
-0.0972297
-0.0954803
-0.0936977
-0.0918866
-0.0900513
-0.0881959
-0.0863245
-0.0844406
-0.0825478
-0.0806493
-0.0787484
-0.0768477
-0.0749503
-0.0730585
-0.0711748
-0.0693015
-0.0674407
-0.0655943
-0.0637641
-0.0619519
-0.0601591
-0.0583872
-0.0566375
-0.054911
-0.0532088
-0.111764
-0.112488
-0.113005
-0.113503
-0.113864
-0.114081
-0.114162
-0.114108
-0.113921
-0.113603
-0.113156
-0.112586
-0.111897
-0.111094
-0.110184
-0.109173
-0.108066
-0.106871
-0.105594
-0.104241
-0.102819
-0.101333
-0.0997888
-0.098193
-0.0965504
-0.0948662
-0.0931454
-0.0913925
-0.0896121
-0.0878084
-0.0859853
-0.0841465
-0.0822958
-0.0804365
-0.0785718
-0.0767047
-0.0748381
-0.0729746
-0.0711168
-0.0692671
-0.0674277
-0.0656006
-0.0637878
-0.0619911
-0.060212
-0.0584522
-0.056713
-0.0549956
-0.0533012
-0.10897
-0.109757
-0.110342
-0.110936
-0.111392
-0.111701
-0.111875
-0.111916
-0.111824
-0.111602
-0.111252
-0.110779
-0.110187
-0.109481
-0.108666
-0.107749
-0.106735
-0.10563
-0.10444
-0.103172
-0.101832
-0.100424
-0.0989563
-0.0974327
-0.0958591
-0.0942405
-0.0925818
-0.0908877
-0.0891627
-0.087411
-0.0856368
-0.0838438
-0.0820358
-0.0802161
-0.0783883
-0.0765552
-0.07472
-0.0728854
-0.0710541
-0.0692285
-0.0674109
-0.0656036
-0.0638086
-0.0620277
-0.0602628
-0.0585154
-0.056787
-0.055079
-0.0533927
-0.106178
-0.107039
-0.107695
-0.10838
-0.108929
-0.10933
-0.109596
-0.10973
-0.109732
-0.109604
-0.10935
-0.108972
-0.108475
-0.107864
-0.107144
-0.106319
-0.105396
-0.10438
-0.103277
-0.102094
-0.100834
-0.0995058
-0.0981131
-0.0966618
-0.0951571
-0.0936042
-0.0920079
-0.0903729
-0.0887036
-0.0870045
-0.0852796
-0.0835328
-0.0817679
-0.0799885
-0.078198
-0.0763995
-0.0745963
-0.072791
-0.0709866
-0.0691855
-0.0673903
-0.0656032
-0.0638263
-0.0620617
-0.0603112
-0.0585766
-0.0568594
-0.0551611
-0.053483
-0.103399
-0.104339
-0.105067
-0.105842
-0.106482
-0.106972
-0.107329
-0.107554
-0.107648
-0.107613
-0.107452
-0.107168
-0.106765
-0.106247
-0.105619
-0.104886
-0.104052
-0.103124
-0.102108
-0.101007
-0.0998291
-0.0985785
-0.0972609
-0.0958817
-0.0944459
-0.0929587
-0.0914249
-0.0898491
-0.0882359
-0.0865896
-0.0849143
-0.0832142
-0.0814929
-0.0797541
-0.0780013
-0.0762379
-0.0744669
-0.0726915
-0.0709144
-0.0691383
-0.0673658
-0.0655992
-0.0638409
-0.0620929
-0.0603573
-0.0586357
-0.05693
-0.0552416
-0.0535721
-0.100639
-0.101665
-0.102467
-0.103327
-0.104056
-0.104634
-0.105079
-0.105393
-0.105577
-0.105633
-0.105563
-0.105371
-0.10506
-0.104633
-0.104096
-0.103452
-0.102707
-0.101866
-0.100934
-0.0999159
-0.0988178
-0.0976446
-0.0964017
-0.0950941
-0.0937271
-0.0923054
-0.090834
-0.0893175
-0.0877604
-0.0861671
-0.0845418
-0.0828885
-0.0812111
-0.0795132
-0.0777986
-0.0760705
-0.0743323
-0.072587
-0.0708376
-0.0690868
-0.0673374
-0.0655918
-0.0638523
-0.0621213
-0.0604007
-0.0586925
-0.0569985
-0.0553204
-0.0536597
-0.0979096
-0.0990218
-0.0998985
-0.100841
-0.101655
-0.102318
-0.102849
-0.103251
-0.103523
-0.103668
-0.103687
-0.103584
-0.103363
-0.103025
-0.102577
-0.102021
-0.101363
-0.100607
-0.0997584
-0.098822
-0.097803
-0.0967064
-0.0955374
-0.094301
-0.0930022
-0.0916459
-0.0902367
-0.0887794
-0.0872784
-0.0857381
-0.0841628
-0.0825565
-0.0809232
-0.0792665
-0.0775903
-0.0758979
-0.0741926
-0.0724778
-0.0707564
-0.0690312
-0.0673052
-0.0655808
-0.0638605
-0.0621467
-0.0604415
-0.0587469
-0.0570649
-0.0553972
-0.0537455
-0.0952175
-0.0964164
-0.0973686
-0.0983897
-0.0992858
-0.100032
-0.100646
-0.101133
-0.10149
-0.101721
-0.101828
-0.101812
-0.101678
-0.101428
-0.101066
-0.100597
-0.100024
-0.0993513
-0.0985846
-0.0977283
-0.0967872
-0.0957662
-0.0946703
-0.0935044
-0.0922733
-0.0909817
-0.0896345
-0.0882361
-0.086791
-0.0853037
-0.0837784
-0.0822191
-0.0806299
-0.0790146
-0.0773769
-0.0757203
-0.0740483
-0.0723641
-0.0706709
-0.0689717
-0.0672692
-0.0655663
-0.0638654
-0.0621691
-0.0604794
-0.0587988
-0.057129
-0.055472
-0.0538295
-0.0925714
-0.0938555
-0.094883
-0.0959787
-0.0969535
-0.0977795
-0.0984748
-0.0990429
-0.0994835
-0.0997982
-0.0999891
-0.100059
-0.100009
-0.0998447
-0.0995676
-0.0991821
-0.0986921
-0.0981017
-0.0974154
-0.0966377
-0.0957732
-0.0948267
-0.0938029
-0.0927065
-0.0915423
-0.0903149
-0.089029
-0.0876891
-0.0862997
-0.0848651
-0.0833896
-0.0818773
-0.0803322
-0.0787582
-0.077159
-0.0755384
-0.0738997
-0.0722463
-0.0705815
-0.0689083
-0.0672296
-0.0655484
-0.0638671
-0.0621884
-0.0605146
-0.0588479
-0.0571905
-0.0555444
-0.0539113
-0.0899791
-0.0913455
-0.0924477
-0.0936142
-0.0946641
-0.0955669
-0.09634
-0.096987
-0.0975078
-0.0979036
-0.0981764
-0.0983282
-0.0983617
-0.0982795
-0.0980849
-0.0977812
-0.0973722
-0.0968617
-0.096254
-0.0955533
-0.0947639
-0.0938905
-0.0929375
-0.0919096
-0.0908114
-0.0896474
-0.0884221
-0.0871402
-0.0858059
-0.0844236
-0.0829976
-0.081532
-0.0800308
-0.0784981
-0.0769374
-0.0753527
-0.0737473
-0.0721248
-0.0704884
-0.0688413
-0.0671866
-0.0655271
-0.0638656
-0.0622046
-0.0605468
-0.0588943
-0.0572495
-0.0556143
-0.0539908
-0.0874483
-0.088893
-0.0900688
-0.0913023
-0.0924233
-0.0933996
-0.0942472
-0.0949702
-0.0955682
-0.0960422
-0.096394
-0.0966255
-0.0967389
-0.0967368
-0.0966221
-0.0963979
-0.0960677
-0.0956351
-0.0951039
-0.0944783
-0.0937624
-0.0929605
-0.092077
-0.0911163
-0.090083
-0.0889813
-0.0878159
-0.0865911
-0.0853113
-0.0839808
-0.0826038
-0.0811846
-0.079727
-0.0782352
-0.0767129
-0.0751638
-0.0735917
-0.072
-0.0703921
-0.0687711
-0.0671403
-0.0655026
-0.0638609
-0.0622179
-0.060576
-0.0589379
-0.0573057
-0.0556817
-0.0540678
-0.0849864
-0.0865046
-0.0877523
-0.089049
-0.0902371
-0.0912833
-0.0922022
-0.0929979
-0.0936699
-0.0942191
-0.0946469
-0.0949551
-0.0951457
-0.095221
-0.0951836
-0.0950364
-0.0947825
-0.0944254
-0.0939688
-0.0934163
-0.0927719
-0.0920399
-0.0912242
-0.0903294
-0.0893595
-0.0883191
-0.0872124
-0.0860439
-0.0848177
-0.0835383
-0.0822097
-0.0808362
-0.0794218
-0.0779705
-0.0764862
-0.0749727
-0.0734336
-0.0718725
-0.0702929
-0.068698
-0.0670911
-0.0654752
-0.0638532
-0.0622281
-0.0606023
-0.0589785
-0.0573591
-0.0557462
-0.0541421
-0.0826004
-0.0841869
-0.0855042
-0.0868604
-0.0881116
-0.089224
-0.0902107
-0.0910756
-0.0918184
-0.0924395
-0.0929402
-0.0933221
-0.0935869
-0.0937367
-0.0937738
-0.0937009
-0.0935209
-0.0932369
-0.0928523
-0.0923708
-0.091796
-0.0911318
-0.0903823
-0.0895515
-0.0886438
-0.0876632
-0.086614
-0.0855006
-0.0843271
-0.0830978
-0.0818168
-0.0804884
-0.0791166
-0.0777053
-0.0762585
-0.0747801
-0.0732737
-0.0717429
-0.0701913
-0.0686223
-0.0670391
-0.0654449
-0.0638427
-0.0622354
-0.0606257
-0.0590162
-0.0574095
-0.0558078
-0.0542135
-0.0802973
-0.0819463
-0.0833306
-0.0847426
-0.0860527
-0.0872275
-0.0882784
-0.0892091
-0.0900192
-0.0907089
-0.0912793
-0.0917316
-0.0920675
-0.0922888
-0.0923975
-0.092396
-0.0922871
-0.0920736
-0.0917587
-0.0913456
-0.0908381
-0.0902397
-0.0895544
-0.088786
-0.0879385
-0.0870162
-0.0860231
-0.0849635
-0.0838414
-0.0826612
-0.0814269
-0.0801427
-0.0788126
-0.0774407
-0.0760308
-0.0745869
-0.0731127
-0.0716119
-0.0700881
-0.0685446
-0.0669849
-0.0654122
-0.0638295
-0.0622399
-0.0606461
-0.0590509
-0.0574569
-0.0558664
-0.0542818
-0.0780837
-0.0797892
-0.0812376
-0.0827017
-0.0840666
-0.0853
-0.0864113
-0.0874042
-0.088278
-0.0890329
-0.0896695
-0.090189
-0.0905928
-0.0908823
-0.0910595
-0.0911265
-0.0910857
-0.0909399
-0.0906919
-0.0903449
-0.0899022
-0.0893673
-0.0887439
-0.0880358
-0.0872468
-0.086381
-0.0854424
-0.084435
-0.0833631
-0.0822306
-0.0810418
-0.0798008
-0.0785115
-0.077178
-0.0758043
-0.0743943
-0.0729517
-0.0714803
-0.0699837
-0.0684654
-0.0669288
-0.0653772
-0.0638139
-0.0622417
-0.0606637
-0.0590827
-0.0575012
-0.0559219
-0.054347
-0.0759661
-0.0777223
-0.0792313
-0.0807438
-0.0821596
-0.0834476
-0.0846156
-0.085667
-0.0866009
-0.0874172
-0.0881166
-0.0886999
-0.089168
-0.0895225
-0.0897649
-0.0898972
-0.0899216
-0.0898404
-0.0896565
-0.0893728
-0.0889923
-0.0885184
-0.0879546
-0.0873045
-0.0865719
-0.0857606
-0.0848746
-0.0839178
-0.0828943
-0.0818082
-0.0806636
-0.0794644
-0.0782148
-0.0769188
-0.0755804
-0.0742033
-0.0727916
-0.0713489
-0.0698789
-0.0683852
-0.0668713
-0.0653405
-0.0637961
-0.0622411
-0.0606786
-0.0591115
-0.0575424
-0.055974
-0.0544088
-0.0739508
-0.0757519
-0.077318
-0.0788754
-0.080338
-0.0816766
-0.0828976
-0.0840036
-0.0849938
-0.085868
-0.0866265
-0.0872698
-0.0877989
-0.0882149
-0.0885191
-0.0887133
-0.0887995
-0.08878
-0.0886571
-0.0884336
-0.0881125
-0.0876969
-0.0871902
-0.0865957
-0.0859171
-0.0851582
-0.0843227
-0.0834146
-0.0824378
-0.0813963
-0.0802943
-0.0791356
-0.0779244
-0.0766646
-0.0753603
-0.0740152
-0.0726334
-0.0712186
-0.0697746
-0.0683048
-0.066813
-0.0653024
-0.0637764
-0.0622382
-0.0606909
-0.0591374
-0.0575805
-0.0560229
-0.054467
-0.0720442
-0.0738846
-0.0755038
-0.0771027
-0.0786082
-0.0799935
-0.0812635
-0.0824204
-0.0834632
-0.0843914
-0.0852052
-0.085905
-0.0864913
-0.0869651
-0.0873276
-0.0875802
-0.0877249
-0.0877635
-0.0876984
-0.0875321
-0.0872674
-0.0869072
-0.0864546
-0.0859131
-0.085286
-0.084577
-0.0837898
-0.0829282
-0.0819961
-0.0809974
-0.0799362
-0.0788164
-0.077642
-0.0764171
-0.0751455
-0.0738314
-0.0724784
-0.0710905
-0.0696715
-0.0682249
-0.0667544
-0.0652634
-0.0637553
-0.0622334
-0.0607008
-0.0591605
-0.0576154
-0.0560683
-0.0545217
-0.0702526
-0.0721271
-0.0737954
-0.0754322
-0.0769768
-0.078405
-0.0797202
-0.080924
-0.0820155
-0.0829939
-0.0838592
-0.0846115
-0.0852512
-0.0857791
-0.0861961
-0.0865036
-0.086703
-0.0867963
-0.0867856
-0.0866731
-0.0864615
-0.0861535
-0.0857522
-0.0852606
-0.0846823
-0.0840206
-0.0832792
-0.0824617
-0.0815721
-0.0806141
-0.0795917
-0.0785089
-0.0773697
-0.076178
-0.0749378
-0.0736531
-0.0723278
-0.0709657
-0.0695706
-0.0681462
-0.0666961
-0.065224
-0.0637331
-0.0622269
-0.0607084
-0.0591809
-0.0576472
-0.0561102
-0.0545725
-0.0685825
-0.0704861
-0.0721995
-0.0738709
-0.0754508
-0.076918
-0.0782744
-0.0795213
-0.0806575
-0.0816822
-0.082595
-0.0833958
-0.084085
-0.084663
-0.0851307
-0.0854891
-0.0857396
-0.0858839
-0.0859238
-0.0858616
-0.0856997
-0.0854406
-0.0850872
-0.0846426
-0.08411
-0.0834927
-0.0827943
-0.0820184
-0.0811687
-0.0802491
-0.0792634
-0.0782156
-0.0771096
-0.0759493
-0.0747389
-0.0734821
-0.0721829
-0.0708452
-0.0694729
-0.0680696
-0.066639
-0.0651848
-0.0637103
-0.062219
-0.0607141
-0.0591987
-0.0576759
-0.0561486
-0.0546195
-0.0670405
-0.0689688
-0.0707229
-0.0724256
-0.0740373
-0.0755396
-0.0769334
-0.0782194
-0.0793963
-0.0804632
-0.0814194
-0.0822648
-0.0829994
-0.0836235
-0.0841377
-0.0845431
-0.0848406
-0.085032
-0.0851187
-0.085103
-0.084987
-0.0847732
-0.0844643
-0.0840633
-0.0835731
-0.0829972
-0.0823389
-0.0816017
-0.0807893
-0.0799054
-0.078954
-0.0779388
-0.0768639
-0.0757331
-0.0745504
-0.0733198
-0.0720452
-0.0707304
-0.0693795
-0.067996
-0.0665837
-0.0651463
-0.0636873
-0.0622101
-0.0607179
-0.0592141
-0.0577016
-0.0561834
-0.0546624
-0.0656337
-0.0675825
-0.0693731
-0.0711037
-0.0727436
-0.0742772
-0.0757046
-0.0770257
-0.0782393
-0.0793443
-0.0803398
-0.0812255
-0.0820012
-0.0826672
-0.0832238
-0.0836718
-0.0840123
-0.0842465
-0.084376
-0.0844028
-0.0843288
-0.0841565
-0.0838884
-0.0835273
-0.0830761
-0.0825381
-0.0819166
-0.081215
-0.080437
-0.0795861
-0.0786662
-0.0776812
-0.0766349
-0.0755313
-0.0743743
-0.0731679
-0.071916
-0.0706226
-0.0692914
-0.0679264
-0.0665311
-0.0651094
-0.0636647
-0.0622005
-0.0607203
-0.0592272
-0.0577243
-0.0562147
-0.0547012
-0.0643694
-0.066335
-0.0681577
-0.069913
-0.0715777
-0.0731389
-0.0745958
-0.0759481
-0.0771943
-0.0783331
-0.0793636
-0.0802853
-0.0810978
-0.0818012
-0.0823957
-0.0828821
-0.083261
-0.0835338
-0.0837018
-0.0837668
-0.0837307
-0.0835957
-0.0833644
-0.0830393
-0.0826234
-0.0821198
-0.0815316
-0.0808622
-0.0801152
-0.0792943
-0.078403
-0.0774454
-0.0764251
-0.0753463
-0.0742127
-0.0730283
-0.0717971
-0.0705231
-0.06921
-0.0678617
-0.066482
-0.0650745
-0.063643
-0.0621908
-0.0607214
-0.0592381
-0.0577441
-0.0562423
-0.0547358
-0.0632554
-0.0652345
-0.0670851
-0.0688618
-0.0705478
-0.0721328
-0.0736154
-0.0749948
-0.0762694
-0.0774377
-0.0784988
-0.079452
-0.0802967
-0.081033
-0.0816609
-0.0821809
-0.0825937
-0.0829004
-0.0831023
-0.083201
-0.0831984
-0.0830964
-0.0828976
-0.0826045
-0.0822198
-0.0817465
-0.0811878
-0.0805471
-0.0798277
-0.0790333
-0.0781675
-0.0772342
-0.0762371
-0.0751803
-0.0740675
-0.0729028
-0.0716901
-0.0704333
-0.0691363
-0.067803
-0.0664372
-0.0650425
-0.0636227
-0.0621813
-0.0607216
-0.0592471
-0.057761
-0.0562663
-0.054766
-0.0623004
-0.0642901
-0.066164
-0.0679589
-0.0696629
-0.0712679
-0.0727723
-0.0741746
-0.0754733
-0.0766667
-0.0777539
-0.0787339
-0.0796061
-0.0803705
-0.0810269
-0.0815757
-0.0820175
-0.0823533
-0.0825843
-0.0827119
-0.082738
-0.0826645
-0.0824936
-0.0822279
-0.08187
-0.0814229
-0.0808897
-0.0802736
-0.0795781
-0.0788066
-0.0779628
-0.0770505
-0.0760735
-0.0750357
-0.0739409
-0.0727932
-0.0715965
-0.0703547
-0.0690717
-0.0677514
-0.0663977
-0.0650141
-0.0636045
-0.0621724
-0.0607212
-0.0592544
-0.0577751
-0.0562865
-0.0547917
-0.0615136
-0.0635113
-0.0654041
-0.0672138
-0.0689324
-0.0705538
-0.0720758
-0.0734968
-0.0748152
-0.0760292
-0.0771377
-0.0781396
-0.0790345
-0.0798219
-0.0805017
-0.0810742
-0.0815399
-0.0818997
-0.0821546
-0.0823061
-0.0823559
-0.0823058
-0.082158
-0.081915
-0.0815793
-0.0811539
-0.0806417
-0.0800461
-0.0793702
-0.0786177
-0.0777922
-0.0768973
-0.075937
-0.074915
-0.0738352
-0.0727016
-0.0715182
-0.0702889
-0.0690175
-0.0677081
-0.0663643
-0.06499
-0.0635889
-0.0621645
-0.0607204
-0.05926
-0.0577865
-0.056303
-0.0548127
-0.0609052
-0.0629086
-0.0648159
-0.066637
-0.0683667
-0.0700005
-0.0715361
-0.0729715
-0.0743049
-0.0755347
-0.0766596
-0.0776786
-0.0785908
-0.0793959
-0.0800938
-0.0806846
-0.0811688
-0.0815471
-0.0818206
-0.0819906
-0.0820587
-0.0820267
-0.0818968
-0.0816713
-0.0813529
-0.0809443
-0.0804485
-0.0798687
-0.0792082
-0.0784704
-0.0776591
-0.0767778
-0.0758303
-0.0748206
-0.0737525
-0.0726299
-0.0714569
-0.0702372
-0.068975
-0.0676739
-0.066338
-0.0649709
-0.0635765
-0.0621582
-0.0607196
-0.0592641
-0.0577951
-0.0563157
-0.0548289
-0.0604863
-0.0624934
-0.0644105
-0.0662395
-0.0679768
-0.0696192
-0.071164
-0.0726093
-0.0739531
-0.0751937
-0.0763298
-0.0773604
-0.0782846
-0.0791019
-0.0798123
-0.0804156
-0.0809125
-0.0813036
-0.0815898
-0.0817725
-0.0818532
-0.0818338
-0.0817162
-0.0815029
-0.0811963
-0.0807993
-0.0803148
-0.0797459
-0.079096
-0.0783684
-0.0775668
-0.0766949
-0.0757564
-0.0747552
-0.0736952
-0.0725802
-0.0714143
-0.0702014
-0.0689454
-0.0676502
-0.0663197
-0.0649576
-0.0635677
-0.0621536
-0.0607189
-0.0592669
-0.057801
-0.0563243
-0.05484
-0.0602681
-0.0622781
-0.0642007
-0.0660339
-0.0677753
-0.0694221
-0.0709717
-0.0724221
-0.0737712
-0.0750174
-0.0761594
-0.0771959
-0.0781263
-0.0789499
-0.0796667
-0.0802765
-0.08078
-0.0811776
-0.0814704
-0.0816597
-0.0817469
-0.0817339
-0.0816227
-0.0814157
-0.0811153
-0.0807242
-0.0802456
-0.0796823
-0.0790379
-0.0783156
-0.0775191
-0.076652
-0.0757182
-0.0747213
-0.0736655
-0.0725545
-0.0713923
-0.0701828
-0.0689301
-0.0676379
-0.0663102
-0.0649507
-0.0635632
-0.0621513
-0.0607185
-0.0592683
-0.057804
-0.0563288
-0.0548458
-0.168987
-0.167294
-0.171545
-0.165455
-0.169647
-0.174173
-0.167612
-0.171957
-0.175672
-0.16545
-0.169619
-0.173456
-0.187798
-0.163173
-0.167178
-0.171107
-0.18402
-0.160792
-0.164646
-0.168637
-0.180261
-0.158318
-0.162035
-0.166054
-0.176523
-0.15576
-0.159352
-0.163371
-0.172806
-0.153126
-0.156604
-0.160596
-0.169108
-0.150424
-0.153798
-0.157741
-0.165428
-0.147663
-0.150939
-0.154814
-0.161765
-0.144848
-0.148034
-0.151824
-0.15812
-0.141987
-0.145087
-0.148781
-0.154493
-0.139087
-0.142104
-0.145691
-0.150884
-0.136153
-0.139092
-0.142565
-0.147295
-0.133194
-0.136054
-0.139408
-0.143728
-0.130214
-0.132999
-0.136229
-0.140185
-0.12722
-0.12993
-0.133036
-0.13667
-0.124219
-0.126854
-0.129835
-0.133185
-0.121215
-0.123778
-0.126635
-0.129733
-0.118216
-0.120706
-0.123442
-0.12632
-0.115227
-0.117646
-0.120264
-0.122947
-0.112253
-0.114602
-0.117106
-0.119619
-0.109301
-0.111582
-0.113977
-0.116341
-0.106376
-0.10859
-0.110881
-0.113115
-0.103483
-0.105632
-0.107826
-0.109946
-0.100628
-0.102714
-0.104817
-0.106838
-0.0978155
-0.0998409
-0.101859
-0.103794
-0.0950508
-0.0970183
-0.0989581
-0.100818
-0.0923385
-0.0942509
-0.0961189
-0.097913
-0.0896832
-0.0915435
-0.093346
-0.0950827
-0.0870894
-0.0889005
-0.0906439
-0.0923302
-0.0845615
-0.0863264
-0.0880165
-0.0896584
-0.0821034
-0.0838254
-0.0854678
-0.0870704
-0.0797194
-0.0814014
-0.0830013
-0.0845689
-0.0774133
-0.0790585
-0.0806207
-0.0821568
-0.0751892
-0.0768003
-0.0783293
-0.079837
-0.0730508
-0.0746308
-0.0761305
-0.0776124
-0.0710022
-0.0725538
-0.0740278
-0.0754861
-0.0690473
-0.0705732
-0.0720246
-0.0734613
-0.0671904
-0.0686929
-0.0701247
-0.0715415
-0.0654357
-0.0669173
-0.068332
-0.0697305
-0.0637878
-0.0652509
-0.0666508
-0.0680325
-0.0622516
-0.0636983
-0.0650856
-0.0664521
-0.0608324
-0.0622649
-0.0636415
-0.0649945
-0.0595358
-0.0609562
-0.062324
-0.0636652
-0.0583681
-0.0597785
-0.0611393
-0.0624705
-0.057336
-0.0587387
-0.0600943
-0.0614173
-0.056447
-0.0578442
-0.0591964
-0.0605135
-0.0557093
-0.0571033
-0.058454
-0.0597675
-0.0551325
-0.0565256
-0.0578768
-0.0591891
-0.0547263
-0.0561212
-0.0574751
-0.058789
-0.0544966
-0.0558972
-0.0572572
-0.0585768
)
;

boundaryField
{
    inlet
    {
        type            zeroGradient;
    }
    outlet
    {
        type            fixedValue;
        value           nonuniform 0();
    }
    cylinder
    {
        type            zeroGradient;
    }
    top
    {
        type            symmetryPlane;
    }
    bottom
    {
        type            symmetryPlane;
    }
    defaultFaces
    {
        type            empty;
    }
    procBoundary14to9
    {
        type            processor;
        value           nonuniform List<scalar> 
17
(
-0.16524
-0.163552
-0.161732
-0.163489
-0.163489
-0.161407
-0.159216
-0.156927
-0.154547
-0.152085
-0.149548
-0.146944
-0.144278
-0.141559
-0.138791
-0.135983
-0.13314
)
;
    }
    procBoundary14to10
    {
        type            processor;
        value           nonuniform List<scalar> 
60
(
-0.0809423
-0.078499
-0.076106
-0.0737634
-0.0714711
-0.0692291
-0.0670372
-0.0648952
-0.0628026
-0.0607591
-0.0587642
-0.0568174
-0.054918
-0.0530653
-0.0512587
-0.154786
-0.154786
-0.16918
-0.167149
-0.166323
-0.16514
-0.163373
-0.161265
-0.158871
-0.156257
-0.153478
-0.150575
-0.147582
-0.144527
-0.141429
-0.138306
-0.135173
-0.132039
-0.128914
-0.125806
-0.122718
-0.119657
-0.116627
-0.113629
-0.110668
-0.107744
-0.104861
-0.102018
-0.0992189
-0.0964634
-0.0937528
-0.0910879
-0.0884696
-0.0858984
-0.083375
-0.083375
-0.170497
-0.173282
-0.173282
-0.176252
-0.176252
-0.177745
-0.177745
-0.191586
-0.191586
)
;
    }