/*--------------------------------*- C++ -*----------------------------------*\
  =========                 |
  \\      /  F ield         | OpenFOAM: The Open Source CFD Toolbox
   \\    /   O peration     | Website:  https://openfoam.org
    \\  /    A nd           | Version:  7
     \\/     M anipulation  |
\*---------------------------------------------------------------------------*/
FoamFile
{
    version     2.0;
    format      ascii;
    class       volVectorField;
    location    "30";
    object      U;
}
// * * * * * * * * * * * * * * * * * * * * * * * * * * * * * * * * * * * * * //

dimensions      [0 1 -1 0 0 0 0];

internalField   nonuniform List<vector> 
2625
(
(1.13904 0.217331 -3.34381e-21)
(1.13269 0.236727 1.71828e-20)
(1.13243 0.217869 4.85907e-21)
(1.12531 0.257176 -1.27927e-20)
(1.12562 0.237225 -1.53978e-20)
(1.12578 0.218259 -1.46962e-20)
(1.11669 0.279116 -2.12287e-20)
(1.11777 0.257648 -1.00774e-20)
(1.11851 0.237559 1.27444e-21)
(1.1191 0.218501 6.2178e-21)
(1.11883 0.201866 -1.46543e-20)
(1.10666 0.302456 -1.81138e-20)
(1.10866 0.27958 1.5099e-20)
(1.11018 0.257937 -4.26964e-21)
(1.11135 0.237726 -3.23142e-20)
(1.11239 0.218592 3.04105e-20)
(1.11251 0.201928 7.8331e-22)
(1.09814 0.302935 1.06694e-22)
(1.10057 0.279838 3.59508e-21)
(1.10253 0.25804 1.77487e-20)
(1.10415 0.237724 2.84113e-20)
(1.10565 0.218532 -5.01086e-20)
(1.10617 0.201849 -2.74354e-20)
(1.08585 0.327628 -3.58137e-20)
(1.08955 0.303184 -2.76792e-20)
(1.09242 0.27989 1.6697e-20)
(1.09484 0.257959 1.82086e-20)
(1.09692 0.237554 3.32937e-21)
(1.09888 0.218319 3.79375e-20)
(1.09982 0.201626 2.60442e-20)
(1.07125 0.353421 -4.4908e-21)
(1.07674 0.327893 2.78889e-20)
(1.08089 0.3032 2.19716e-20)
(1.08423 0.279736 -2.85624e-20)
(1.08711 0.257691 -1.3976e-20)
(1.08966 0.237215 -4.72905e-20)
(1.0921 0.217951 -5.14805e-20)
(1.09347 0.201256 -2.19084e-20)
(1.06162 0.353739 -9.28349e-21)
(1.06756 0.327895 -2.62653e-20)
(1.07218 0.302985 -1.08925e-20)
(1.07599 0.279374 4.50564e-21)
(1.07935 0.257237 1.33614e-20)
(1.08237 0.236704 8.55897e-20)
(1.08529 0.217428 6.43797e-21)
(1.08711 0.200738 -1.23919e-20)
(1.04344 0.380313 4.12826e-20)
(1.05191 0.353759 7.98576e-20)
(1.05832 0.327635 -2.57916e-20)
(1.06343 0.302536 3.13069e-20)
(1.06773 0.278806 -8.39775e-21)
(1.07156 0.256597 -2.44865e-20)
(1.07506 0.236023 4.36456e-20)
(1.07847 0.216749 4.79988e-20)
(1.08075 0.200069 -8.51547e-21)
(1.03319 0.380397 -6.06366e-21)
(1.04213 0.353482 -4.78325e-20)
(1.04904 0.327112 2.19462e-20)
(1.05464 0.301856 2.95856e-20)
(1.05944 0.27803 5.09378e-20)
(1.06376 0.255771 -8.80749e-20)
(1.06773 0.235171 -6.86318e-20)
(1.07164 0.215912 -8.90372e-21)
(1.07439 0.199245 2.17577e-20)
(1.01044 0.407153 -6.76505e-20)
(1.02286 0.380144 6.52056e-21)
(1.03228 0.352906 1.02932e-20)
(1.03971 0.326326 -1.92765e-20)
(1.04583 0.300943 -9.67319e-20)
(1.05113 0.277048 2.01447e-20)
(1.05594 0.254759 1.07535e-19)
(1.06039 0.234148 6.61694e-21)
(1.06479 0.214917 -5.32637e-20)
(1.06802 0.198264 2.99345e-20)
(0.999551 0.40698 7.96458e-20)
(1.01244 0.379552 -1.35042e-20)
(1.02239 0.352032 3.46327e-20)
(1.03035 0.325277 -6.55413e-21)
(1.03701 0.299797 4.30722e-20)
(1.04282 0.27586 -8.35098e-21)
(1.04811 0.253562 -4.37695e-21)
(1.05304 0.232954 2.49992e-20)
(1.05793 0.213765 9.4001e-20)
(1.06166 0.197123 1.47919e-20)
(0.970995 0.432996 -4.93232e-20)
(0.988568 0.406423 -4.23567e-20)
(1.00197 0.378621 -1.06982e-20)
(1.01246 0.35086 -2.76965e-20)
(1.02098 0.323965 4.42124e-20)
(1.02818 0.29842 -3.11316e-20)
(1.03451 0.274466 -6.05251e-20)
(1.04028 0.25218 -5.20233e-20)
(1.04569 0.231592 3.9821e-20)
(1.05105 0.212457 -1.14097e-19)
(1.0553 0.195816 4.35894e-20)
(0.959464 0.43254 4.33288e-20)
(0.977506 0.405483 -1.04478e-20)
(0.991445 0.377352 -2.09294e-20)
(1.00252 0.34939 -1.84958e-20)
(1.01161 0.322391 4.11405e-20)
(1.01936 0.296811 3.64581e-21)
(1.0262 0.272866 1.3315e-20)
(1.03246 0.250616 5.18939e-22)
(1.03833 0.230062 -1.47978e-21)
(1.04416 0.210994 -5.03765e-20)
(1.04893 0.194339 -6.34934e-20)
(0.947832 0.431652 8.82712e-20)
(0.966382 0.404159 -3.76235e-20)
(0.980894 0.375746 -3.97462e-20)
(0.992561 0.347622 1.99617e-20)
(1.00224 0.320554 -1.47183e-20)
(1.01056 0.294971 -7.74232e-21)
(1.01792 0.271063 -5.06719e-20)
(1.02466 0.24887 -2.70427e-20)
(1.03098 0.228368 -1.87146e-20)
(1.03725 0.209378 8.7432e-20)
(1.04256 0.192688 -2.69667e-20)
(0.911494 0.455684 2.85869e-20)
(0.936118 0.430331 -1.21394e-19)
(0.955214 0.402452 4.43447e-20)
(0.970325 0.373801 7.43687e-20)
(0.982608 0.345558 1.10444e-20)
(0.992896 0.318457 -9.64715e-20)
(1.00178 0.2929 -9.97062e-21)
(1.00967 0.269056 -3.68449e-20)
(1.01688 0.246945 3.51367e-21)
(1.02364 0.226512 -2.38955e-20)
(1.03033 0.207614 9.12899e-20)
(1.03617 0.190856 -6.82257e-20)
(0.899234 0.454436 9.27775e-20)
(0.924342 0.428577 2.31129e-20)
(0.944017 0.400364 6.21266e-20)
(0.959753 0.371521 3.20747e-20)
(0.972671 0.343197 -1.16777e-21)
(0.983575 0.316099 6.60256e-20)
(0.993037 0.2906 -1.21137e-20)
(1.00146 0.266846 1.10012e-19)
(1.00914 0.244841 3.10715e-20)
(1.01632 0.224497 -6.33716e-20)
(1.02339 0.205707 -9.6028e-20)
(1.02976 0.188836 4.56318e-20)
(0.886889 0.452704 -1.08302e-19)
(0.912522 0.426392 -2.48583e-20)
(0.932808 0.397894 -1.79314e-20)
(0.949193 0.368905 -1.11831e-20)
(0.962763 0.340542 2.45865e-20)
(0.974295 0.313481 -6.43635e-20)
(0.984342 0.28807 6.52445e-21)
(0.993294 0.264435 -6.47244e-20)
(1.00144 0.24256 7.56249e-21)
(1.00903 0.222329 -5.73106e-20)
(1.01642 0.203665 -8.86191e-20)
(1.02331 0.186622 3.43457e-20)
(0.841144 0.472824 9.35416e-20)
(0.874482 0.450486 2.04211e-20)
(0.900677 0.423777 1.07289e-19)
(0.921602 0.395045 -3.4512e-20)
(0.938657 0.365956 -8.54974e-20)
(0.952894 0.337593 -9.70899e-20)
(0.965065 0.310604 4.21809e-20)
(0.975704 0.285312 -2.53819e-20)
(0.985191 0.261823 2.99092e-20)
(0.993797 0.240105 -1.08048e-19)
(1.00178 0.220012 3.95825e-20)
(1.00943 0.201493 1.56591e-19)
(1.0168 0.184204 6.86129e-20)
(0.828227 0.470654 -9.62024e-20)
(0.862034 0.447786 6.97083e-20)
(0.888825 0.420733 -4.64816e-20)
(0.910416 0.391818 -1.65311e-20)
(0.928161 0.362675 -7.23458e-21)
(0.943077 0.334353 3.95329e-20)
(0.955895 0.307469 1.239e-20)
(0.967133 0.282326 5.17152e-20)
(0.977156 0.25901 -1.54712e-20)
(0.986226 0.237474 1.0781e-19)
(0.994589 0.217551 1.15928e-19)
(1.00243 0.199201 3.93935e-20)
(1.01022 0.18156 -2.56186e-20)
(0.815249 0.467946 -5.32013e-20)
(0.849565 0.444603 -1.16898e-19)
(0.876983 0.417263 -1.28901e-19)
(0.899264 0.388216 7.87059e-20)
(0.917716 0.359064 4.26086e-20)
(0.933324 0.330821 7.24668e-20)
(0.946796 0.304079 1.36704e-20)
(0.958637 0.279113 -4.72075e-20)
(0.969202 0.255996 1.07972e-19)
(0.978739 0.23467 -1.40858e-19)
(0.987477 0.214955 -7.42089e-20)
(0.995436 0.196821 -1.47562e-19)
(1.00357 0.178732 -1.34719e-21)
(0.758527 0.481465 5.03013e-20)
(0.802233 0.4647 4.65287e-20)
(0.837095 0.440941 -3.36348e-21)
(0.865171 0.413369 1.30892e-19)
(0.888163 0.384242 -8.09511e-20)
(0.907336 0.355125 -4.98783e-20)
(0.923645 0.327002 -9.1764e-20)
(0.937778 0.300433 4.26024e-21)
(0.950226 0.275674 4.29149e-20)
(0.961336 0.252782 -7.894e-20)
(0.971348 0.23169 2.63538e-19)
(0.98047 0.212219 5.899e-20)
(0.988578 0.194406 1.74895e-19)
(0.996848 0.176233 1.28779e-21)
(0.745099 0.478245 -1.01762e-19)
(0.789202 0.460919 -2.43747e-20)
(0.824646 0.436802 5.20508e-20)
(0.853405 0.409054 -8.00044e-20)
(0.877127 0.379898 1.44042e-20)
(0.897034 0.350863 6.80628e-21)
(0.914052 0.322897 -4.77765e-20)
(0.928849 0.296535 8.6616e-20)
(0.941908 0.27201 -6.81249e-20)
(0.953567 0.249367 3.17352e-20)
(0.964061 0.22853 -1.17178e-19)
(0.973596 0.20932 -1.35314e-19)
(0.981998 0.191833 -1.6127e-19)
(0.990831 0.174 3.55879e-20)
(0.73164 0.474437 9.22649e-20)
(0.77618 0.456607 1.78188e-19)
(0.812237 0.432191 1.08057e-19)
(0.841703 0.404323 8.62718e-22)
(0.866172 0.375188 4.34082e-20)
(0.886822 0.346279 1.01399e-19)
(0.904555 0.318509 1.30856e-19)
(0.920021 0.292386 -1.65636e-19)
(0.933691 0.268123 1.38133e-19)
(0.945901 0.245751 -6.41358e-20)
(0.956884 0.225188 -5.45816e-20)
(0.966849 0.206249 9.20252e-20)
(0.975598 0.189049 -4.01484e-20)
(0.984872 0.171659 -6.44531e-20)
(0.718179 0.470044 -1.1965e-19)
(0.76319 0.451766 -1.22181e-19)
(0.799888 0.42711 -1.29933e-19)
(0.830082 0.399179 1.82252e-20)
(0.855311 0.370116 2.96612e-20)
(0.876713 0.341377 2.53533e-20)
(0.895165 0.313841 -4.31669e-20)
(0.911301 0.287988 8.70475e-20)
(0.925583 0.264014 -8.17673e-20)
(0.938344 0.241935 6.05279e-20)
(0.949819 0.221664 4.03025e-21)
(0.960219 0.203011 5.7161e-20)
(0.969336 0.18608 9.77917e-20)
(0.978978 0.169103 -4.07039e-20)
(0.704739 0.465069 -1.1827e-19)
(0.750255 0.446402 -4.89313e-20)
(0.787619 0.421566 6.61054e-21)
(0.818558 0.393626 -5.37482e-20)
(0.844558 0.364686 -7.38189e-20)
(0.86672 0.33616 -6.70622e-20)
(0.885893 0.308895 2.45678e-20)
(0.902698 0.283345 1.59655e-21)
(0.917591 0.259686 1.02161e-19)
(0.930903 0.237923 -1.70618e-19)
(0.942868 0.217961 1.54777e-19)
(0.953704 0.199608 -7.58203e-20)
(0.963202 0.182953 1.13854e-19)
(0.973181 0.166376 7.38363e-20)
(0.63498 0.468602 1.2764e-19)
(0.691346 0.459517 4.90665e-20)
(0.737397 0.44052 -3.47098e-20)
(0.775448 0.415562 1.69405e-19)
(0.807148 0.38767 2.25567e-19)
(0.833929 0.358902 -6.82801e-20)
(0.856853 0.330633 -2.25575e-21)
(0.876748 0.303676 -1.30222e-20)
(0.894221 0.278459 3.08696e-20)
(0.909723 0.255141 -7.82028e-20)
(0.923582 0.233716 2.50297e-19)
(0.936036 0.214081 -1.76593e-19)
(0.947307 0.196046 6.74932e-21)
(0.95719 0.179681 -1.06926e-19)
(0.967489 0.16351 -6.22655e-20)
(0.621339 0.462999 -9.35624e-20)
(0.678024 0.453393 2.37116e-19)
(0.724637 0.434125 6.94919e-20)
(0.763396 0.409105 -1.96876e-19)
(0.795869 0.381316 -1.81034e-19)
(0.823437 0.35277 2.15214e-19)
(0.847126 0.324799 -5.89341e-20)
(0.867742 0.298186 1.01805e-19)
(0.88588 0.273333 -7.75602e-20)
(0.901986 0.250383 -1.21187e-20)
(0.916388 0.229317 -3.25676e-20)
(0.929327 0.210028 7.13351e-20)
(0.941028 0.192328 8.26917e-21)
(0.951299 0.176269 6.53444e-21)
(0.961905 0.160511 4.22604e-20)
(0.607763 0.456778 -1.0971e-20)
(0.664799 0.446703 -3.63956e-19)
(0.711997 0.427223 -1.03336e-19)
(0.75148 0.402201 1.782e-19)
(0.784736 0.37457 -1.22429e-19)
(0.813095 0.346293 7.78664e-22)
(0.837548 0.318664 8.52362e-20)
(0.858883 0.292431 -1.10371e-19)
(0.877681 0.267972 5.85044e-20)
(0.894386 0.245414 -3.99304e-20)
(0.909327 0.224729 -1.30251e-20)
(0.922746 0.205806 1.67198e-19)
(0.934872 0.188456 -1.0624e-19)
(0.945532 0.172719 -8.9958e-20)
(0.956434 0.15738 -4.67937e-20)
(0.594278 0.449943 1.58192e-19)
(0.651694 0.439455 1.48538e-19)
(0.699498 0.419822 1.49674e-19)
(0.739719 0.394856 -1.2973e-19)
(0.773764 0.367437 1.36909e-19)
(0.802916 0.339479 -4.52637e-20)
(0.828133 0.312233 -1.33723e-19)
(0.850181 0.286414 -6.01898e-20)
(0.869635 0.262378 1.20075e-20)
(0.886933 0.240238 1.52452e-19)
(0.902405 0.219955 4.63201e-20)
(0.916298 0.201416 -2.91679e-19)
(0.928844 0.184435 1.06738e-19)
(0.93989 0.169034 2.04258e-19)
(0.95108 0.154118 4.49183e-20)
(0.580913 0.442504 -1.16909e-19)
(0.638733 0.431655 1.22898e-19)
(0.687162 0.41193 8.55241e-20)
(0.728131 0.387078 -2.2195e-21)
(0.76297 0.359925 2.70336e-20)
(0.792915 0.332333 -6.53056e-20)
(0.81889 0.305509 7.37893e-20)
(0.841646 0.28014 1.34637e-20)
(0.861748 0.256557 -8.53039e-20)
(0.879631 0.234858 -2.05761e-19)
(0.895628 0.214999 -8.54791e-20)
(0.909989 0.196861 1.88993e-19)
(0.922949 0.180265 -3.82682e-20)
(0.934377 0.165215 -1.91668e-19)
(0.945849 0.150725 1.78698e-20)
(0.499022 0.431674 -2.99128e-20)
(0.567692 0.434466 1.6794e-20)
(0.62594 0.423313 -1.73098e-19)
(0.675007 0.403554 -2.17388e-20)
(0.716733 0.378875 1.0401e-20)
(0.752367 0.352041 -1.26962e-19)
(0.783102 0.324861 4.91551e-20)
(0.809832 0.2985 1.63596e-19)
(0.833288 0.273613 -7.73002e-21)
(0.854029 0.250512 3.3571e-20)
(0.87249 0.229279 2.16424e-19)
(0.889003 0.209864 7.02092e-20)
(0.903824 0.192146 -4.29391e-20)
(0.917192 0.175949 -1.08293e-20)
(0.928998 0.161265 9.93742e-20)
(0.940747 0.147204 -5.03565e-20)
(0.485897 0.423642 -2.87334e-20)
(0.554642 0.425841 -2.71855e-20)
(0.613337 0.414438 1.38771e-19)
(0.663055 0.394704 -8.55182e-20)
(0.705541 0.370256 -3.60091e-20)
(0.741971 0.343793 1.05423e-19)
(0.773492 0.31707 5.84455e-20)
(0.800967 0.291211 3.65585e-20)
(0.825115 0.26684 1.4694e-19)
(0.846487 0.244247 -8.03067e-20)
(0.865515 0.223504 -3.33757e-20)
(0.882536 0.204553 -1.8383e-20)
(0.89781 0.187272 2.18615e-21)
(0.911578 0.171489 1.38314e-19)
(0.923757 0.157184 -1.54282e-19)
(0.935776 0.143556 1.11309e-19)
(0.472943 0.414992 1.15109e-19)
(0.541788 0.416639 1.16971e-19)
(0.600947 0.40504 -2.32236e-20)
(0.651325 0.38539 9.59639e-20)
(0.694574 0.361228 3.92784e-20)
(0.731796 0.335187 -1.29341e-19)
(0.764095 0.308967 -1.34855e-19)
(0.792307 0.283649 -1.80602e-19)
(0.817137 0.259825 -2.39496e-19)
(0.839128 0.237768 1.99439e-19)
(0.858714 0.217537 -7.80679e-20)
(0.876233 0.19907 -8.2064e-20)
(0.891951 0.182243 -4.1708e-20)
(0.906113 0.166888 -2.39534e-19)
(0.918658 0.152974 2.96383e-20)
(0.930943 0.139782 -1.12647e-19)
(0.460186 0.405735 -3.61702e-20)
(0.529154 0.406869 2.99531e-20)
(0.588792 0.39513 3.75836e-20)
(0.639835 0.375622 -1.93507e-19)
(0.683846 0.351802 -1.79591e-20)
(0.721855 0.326234 1.25355e-19)
(0.754924 0.300559 1.22599e-19)
(0.783863 0.275818 -6.14146e-20)
(0.809362 0.252574 3.5228e-20)
(0.831961 0.231079 -2.31317e-19)
(0.852093 0.211383 2.0068e-20)
(0.8701 0.193419 1.33165e-19)
(0.886253 0.177062 5.67951e-20)
(0.9008 0.162149 -2.14708e-20)
(0.913705 0.148638 -5.60784e-20)
(0.92625 0.135885 1.98894e-20)
(0.447654 0.395882 -2.19601e-19)
(0.516766 0.396545 -2.55886e-19)
(0.576892 0.384719 -1.04968e-19)
(0.628605 0.365411 -1.47183e-20)
(0.673374 0.341988 2.58444e-19)
(0.712162 0.316941 7.15752e-20)
(0.74599 0.291854 -8.76858e-20)
(0.775642 0.267728 1.48493e-19)
(0.801799 0.245093 1.98789e-19)
(0.824993 0.224186 1.13431e-20)
(0.845659 0.205046 3.02437e-20)
(0.864143 0.187603 6.33091e-22)
(0.880721 0.171731 -5.88391e-20)
(0.895646 0.157273 1.45629e-19)
(0.908904 0.144176 1.15004e-19)
(0.921702 0.131866 5.13246e-20)
(0.435372 0.385446 2.96887e-19)
(0.504646 0.38568 3.31267e-20)
(0.56527 0.373821 -7.81491e-21)
(0.617651 0.354768 1.11848e-19)
(0.663174 0.331795 -1.77175e-19)
(0.70273 0.307317 -3.49123e-20)
(0.737304 0.282861 -1.54534e-19)
(0.767656 0.259383 4.71834e-20)
(0.794455 0.237388 -2.02469e-19)
(0.818231 0.217094 -7.49203e-21)
(0.839419 0.198531 -1.67625e-19)
(0.858368 0.181627 -5.71861e-20)
(0.875361 0.166255 6.48459e-20)
(0.890654 0.152264 -8.67723e-21)
(0.904256 0.139592 6.24126e-20)
(0.917303 0.127727 8.48344e-20)
(0.423366 0.374441 -2.08604e-19)
(0.492819 0.374287 2.17657e-20)
(0.553945 0.362448 6.83988e-21)
(0.606992 0.343705 -1.61819e-19)
(0.653259 0.321235 -1.68106e-19)
(0.693572 0.297373 1.29472e-19)
(0.728877 0.273588 1.22207e-19)
(0.759914 0.250793 3.6725e-20)
(0.78734 0.229466 4.46167e-21)
(0.811682 0.209808 9.98807e-21)
(0.833378 0.191843 1.48505e-19)
(0.85278 0.175494 -3.6471e-20)
(0.870177 0.160638 -5.30536e-20)
(0.885829 0.147125 5.47315e-21)
(0.899766 0.134889 -1.64271e-20)
(0.913056 0.123473 -5.9224e-20)
(0.411659 0.362882 -6.94034e-20)
(0.481305 0.362381 -4.29891e-20)
(0.542936 0.350615 7.00227e-20)
(0.596645 0.332235 1.20023e-19)
(0.643645 0.310318 1.03757e-19)
(0.684699 0.287118 -1.5044e-19)
(0.72072 0.264042 -1.14011e-19)
(0.752424 0.241964 -4.78352e-20)
(0.780461 0.221332 1.70116e-19)
(0.805354 0.202335 3.02469e-20)
(0.827543 0.184987 -1.50057e-19)
(0.847385 0.16921 -6.11857e-20)
(0.865174 0.154882 1.21665e-20)
(0.881175 0.14186 -9.28124e-20)
(0.895438 0.130068 -9.8306e-20)
(0.908964 0.119105 1.54773e-20)
(0.32113 0.335391 -2.14281e-19)
(0.400278 0.350786 2.45173e-19)
(0.470127 0.349977 2.56399e-21)
(0.532263 0.338334 4.38608e-20)
(0.586625 0.320371 -6.39139e-21)
(0.634346 0.299057 -6.51156e-20)
(0.676125 0.276562 -1.78228e-20)
(0.712842 0.254235 -3.68517e-20)
(0.745196 0.232904 -5.62125e-20)
(0.773825 0.212995 -1.7362e-22)
(0.799252 0.19468 1.32298e-20)
(0.821919 0.177968 9.0548e-20)
(0.842187 0.162779 -4.44739e-20)
(0.860357 0.148993 5.26309e-20)
(0.876696 0.136471 8.67477e-20)
(0.891275 0.125135 -3.28562e-20)
(0.905029 0.114627 -1.21916e-19)
(0.310332 0.323647 -5.53915e-21)
(0.389244 0.338168 -3.8061e-20)
(0.459306 0.337092 7.47111e-20)
(0.521945 0.325623 -1.81284e-19)
(0.576949 0.308127 -1.2913e-21)
(0.625374 0.287464 9.00542e-20)
(0.667859 0.265717 1.14085e-19)
(0.705254 0.244173 2.50122e-19)
(0.738237 0.223622 -8.19642e-21)
(0.767439 0.204461 3.52285e-20)
(0.793383 0.18685 -6.53453e-20)
(0.816511 0.170792 5.1311e-20)
(0.837192 0.156206 -4.9429e-20)
(0.855729 0.142975 -5.84029e-20)
(0.872395 0.130964 4.47324e-20)
(0.88728 0.120091 5.68827e-20)
(0.901256 0.110042 9.34316e-20)
(0.299882 0.311381 8.18385e-20)
(0.37858 0.325046 -9.94315e-20)
(0.448862 0.323742 -7.4454e-20)
(0.511998 0.312495 1.84537e-19)
(0.567631 0.295516 -5.93065e-20)
(0.616743 0.275551 5.82492e-20)
(0.659914 0.254593 -4.53857e-20)
(0.697965 0.233868 -1.74744e-19)
(0.731555 0.214125 1.54043e-19)
(0.761311 0.195738 -5.25103e-20)
(0.787752 0.178852 1.80359e-19)
(0.811326 0.163464 6.94209e-20)
(0.832403 0.149496 1.79829e-19)
(0.851294 0.136832 3.75137e-20)
(0.868276 0.125341 -8.0714e-20)
(0.883456 0.114941 -9.76874e-21)
(0.897645 0.105355 2.44846e-20)
(0.289802 0.298612 4.80131e-20)
(0.368309 0.31144 9.5572e-20)
(0.438815 0.309946 1.41301e-19)
(0.50244 0.298969 -1.25085e-19)
(0.558687 0.282555 1.04638e-19)
(0.608464 0.263331 -1.35042e-19)
(0.652299 0.243201 -5.4096e-20)
(0.690983 0.22333 -2.28104e-20)
(0.725159 0.204424 -1.79042e-19)
(0.755447 0.186833 1.77353e-21)
(0.782367 0.170691 -1.772e-19)
(0.806368 0.155991 -1.718e-19)
(0.827827 0.142654 -1.08985e-19)
(0.847058 0.130568 -2.07129e-20)
(0.864342 0.119609 2.07376e-20)
(0.879805 0.109689 3.81928e-20)
(0.894201 0.100569 -5.63326e-20)
(0.280116 0.285359 -5.30739e-20)
(0.35845 0.297369 -1.71065e-19)
(0.429183 0.295722 -1.51418e-19)
(0.493287 0.28506 1.35999e-19)
(0.55013 0.269256 -6.13825e-20)
(0.600551 0.250817 7.87185e-20)
(0.645025 0.231554 5.90171e-20)
(0.684317 0.212568 3.33266e-20)
(0.719055 0.194525 -1.06542e-19)
(0.749854 0.177755 7.49058e-21)
(0.777232 0.162376 2.59957e-20)
(0.801643 0.148379 -3.42632e-20)
(0.823466 0.135687 1.05401e-19)
(0.843023 0.12419 -8.69555e-21)
(0.860597 0.11377 -4.6623e-20)
(0.876331 0.104339 5.86261e-21)
(0.890925 0.095689 5.34545e-21)
(0.270843 0.271643 -1.71319e-19)
(0.349025 0.282852 2.90396e-19)
(0.419985 0.281089 2.5609e-20)
(0.484554 0.270786 1.29003e-20)
(0.541973 0.255638 1.24816e-19)
(0.593014 0.238024 -2.9194e-20)
(0.638101 0.219662 -1.04098e-20)
(0.677975 0.201592 -4.22292e-20)
(0.713251 0.18444 9.74456e-20)
(0.744537 0.16851 -3.90961e-20)
(0.772353 0.153912 5.2053e-20)
(0.797154 0.140634 1.89629e-19)
(0.819325 0.128599 2.02544e-20)
(0.839192 0.117702 -9.34943e-21)
(0.857044 0.107829 5.88937e-20)
(0.873036 0.0988953 -3.88464e-20)
(0.887818 0.0907183 4.24804e-20)
(0.262006 0.257485 1.59434e-19)
(0.340051 0.267912 -1.02193e-19)
(0.411236 0.266067 4.60187e-20)
(0.476257 0.256165 -7.41165e-20)
(0.53423 0.241714 -4.2698e-20)
(0.585863 0.224965 4.24801e-20)
(0.631537 0.207539 -9.77925e-20)
(0.671966 0.190415 6.06686e-20)
(0.707753 0.174177 3.61493e-20)
(0.739502 0.159108 6.68702e-20)
(0.767734 0.145308 -4.22428e-20)
(0.792906 0.132763 -1.86684e-20)
(0.815407 0.121396 -7.69776e-20)
(0.83557 0.111109 -2.39401e-20)
(0.853685 0.101793 -3.1665e-20)
(0.869923 0.0933624 1.08716e-20)
(0.884884 0.0856618 2.10417e-20)
(0.253623 0.242908 5.93698e-20)
(0.331548 0.252569 -1.51019e-19)
(0.402954 0.250676 -3.60936e-20)
(0.468409 0.241215 1.08236e-19)
(0.526911 0.227501 9.25825e-21)
(0.57911 0.211655 3.30108e-20)
(0.62534 0.195198 1.32755e-19)
(0.666296 0.179046 -9.24917e-20)
(0.702567 0.163745 1.77068e-21)
(0.734756 0.149557 -1.04356e-20)
(0.76338 0.136571 5.48186e-20)
(0.788903 0.124771 -1.27038e-19)
(0.811717 0.114085 8.61465e-20)
(0.832159 0.104417 1.1183e-19)
(0.850523 0.0956646 -3.22251e-20)
(0.866993 0.087745 -8.26912e-20)
(0.882125 0.0805241 -8.76975e-20)
(0.245713 0.227934 -5.64381e-20)
(0.323532 0.236847 1.73476e-19)
(0.395154 0.234937 8.0406e-20)
(0.461024 0.225956 -2.07361e-21)
(0.520029 0.213018 8.04073e-20)
(0.572763 0.198107 -1.19785e-19)
(0.619519 0.182649 9.00582e-20)
(0.660973 0.167496 1.22488e-19)
(0.697701 0.153155 -7.72407e-20)
(0.730302 0.139865 -4.68418e-21)
(0.759296 0.127709 -8.21286e-20)
(0.785149 0.116668 1.15044e-19)
(0.808257 0.106672 -7.21477e-20)
(0.828961 0.0976317 1.00607e-19)
(0.84756 0.0894504 -3.36161e-20)
(0.864249 0.0820479 7.04007e-20)
(0.879541 0.0753099 -3.74574e-20)
(0.238292 0.212587 1.49051e-20)
(0.31602 0.220768 -1.91788e-19)
(0.38785 0.218873 -1.29674e-19)
(0.454113 0.210407 -6.03551e-20)
(0.513593 0.198279 -1.75377e-19)
(0.566831 0.184338 4.21183e-20)
(0.614082 0.169908 -1.18891e-19)
(0.656002 0.155778 -1.33264e-19)
(0.693158 0.142416 8.19531e-20)
(0.726146 0.130042 4.93922e-20)
(0.755487 0.118729 3.51352e-21)
(0.781648 0.108458 -9.45951e-20)
(0.805031 0.099163 -4.18036e-20)
(0.825981 0.0907587 -1.83034e-19)
(0.844799 0.0831554 9.84871e-20)
(0.861692 0.0762761 -6.59128e-20)
(0.877135 0.070024 1.06566e-19)
(0.231378 0.196893 -4.78353e-21)
(0.309026 0.204357 1.53193e-19)
(0.381055 0.202504 7.46342e-20)
(0.447689 0.194587 -7.8599e-20)
(0.507614 0.183303 2.57457e-20)
(0.561323 0.170363 -1.37705e-19)
(0.609035 0.156987 7.78763e-20)
(0.65139 0.143903 1.35316e-19)
(0.688944 0.13154 -5.62753e-20)
(0.722292 0.120097 -2.8951e-20)
(0.751955 0.10964 4.71442e-20)
(0.778403 0.10015 4.12674e-20)
(0.802042 0.0915646 5.60303e-20)
(0.82322 0.0838041 9.46609e-20)
(0.842243 0.0767851 -1.89117e-20)
(0.859325 0.0704348 6.24206e-20)
(0.874907 0.0646713 -4.72829e-20)
(0.224986 0.180875 8.49351e-20)
(0.302564 0.187637 4.57366e-21)
(0.374782 0.185853 8.45884e-21)
(0.441762 0.178517 9.59436e-20)
(0.502101 0.168108 2.36608e-21)
(0.556247 0.156197 1.3732e-19)
(0.604386 0.1439 3.13345e-20)
(0.647142 0.131883 5.41873e-20)
(0.685065 0.120535 7.36504e-20)
(0.718745 0.110038 -9.25648e-20)
(0.748705 0.10045 3.78633e-20)
(0.775418 0.091751 -1.05214e-20)
(0.799292 0.0838835 -4.83052e-20)
(0.820681 0.0767739 -1.73566e-21)
(0.839892 0.0703451 -2.01854e-20)
(0.857149 0.0645289 4.35065e-20)
(0.872861 0.0592569 1.27861e-20)
(0.21913 0.16456 -1.80836e-19)
(0.296649 0.170635 4.03857e-20)
(0.369042 0.168944 2.07572e-20)
(0.436341 0.162217 -2.49576e-20)
(0.497062 0.152712 1.58218e-20)
(0.551609 0.141855 -6.78093e-20)
(0.60014 0.13066 -1.04471e-19)
(0.643264 0.119729 -1.35444e-19)
(0.681524 0.109413 -3.15873e-20)
(0.715508 0.0998757 9.20188e-20)
(0.745739 0.0911669 4.31354e-20)
(0.772694 0.0832683 -1.0609e-20)
(0.796785 0.0761265 -1.58139e-20)
(0.818366 0.0696742 -3.27385e-20)
(0.837749 0.0638411 2.1915e-20)
(0.855166 0.058564 -6.24769e-20)
(0.870996 0.053786 -3.185e-20)
(0.138297 0.131539 -1.15473e-19)
(0.213822 0.147975 1.04552e-19)
(0.29129 0.153374 -1.19559e-19)
(0.363846 0.151799 8.07069e-20)
(0.431437 0.145708 -1.07688e-20)
(0.492505 0.137133 8.42902e-21)
(0.547416 0.127354 7.69868e-20)
(0.596303 0.117282 -7.95447e-20)
(0.639761 0.107454 9.058e-20)
(0.678325 0.0981848 -3.16974e-20)
(0.712584 0.0896185 -1.39423e-21)
(0.743062 0.0817994 -6.46677e-20)
(0.770236 0.0747095 -4.67423e-21)
(0.794521 0.0683005 5.07165e-20)
(0.816277 0.0625114 1.50133e-21)
(0.835815 0.0572789 1.45068e-20)
(0.853377 0.0525452 1.58095e-20)
(0.869314 0.0482636 2.68662e-20)
(0.133949 0.116625 3.91491e-21)
(0.209074 0.131147 3.9384e-20)
(0.2865 0.135882 1.05736e-19)
(0.359203 0.134443 -7.89342e-20)
(0.427058 0.129012 -2.63538e-20)
(0.488436 0.12139 3.26805e-21)
(0.543675 0.11271 1.27148e-20)
(0.59288 0.103779 2.11234e-20)
(0.636636 0.0950704 -6.63047e-20)
(0.675473 0.0868607 -1.55671e-20)
(0.709978 0.0792765 -8.42201e-21)
(0.740675 0.0723559 9.68163e-21)
(0.768044 0.0660824 -2.51726e-20)
(0.792504 0.0604125 -1.68846e-20)
(0.814415 0.0552918 1.27809e-20)
(0.834093 0.0506643 -9.87434e-21)
(0.851784 0.0464781 4.79361e-20)
(0.867816 0.042695 -2.9706e-20)
(0.130122 0.101502 -5.19879e-20)
(0.204896 0.114102 -6.0469e-20)
(0.282287 0.118184 -8.25815e-20)
(0.355122 0.1169 -2.68085e-20)
(0.423209 0.112149 1.63989e-20)
(0.484863 0.105501 4.64054e-22)
(0.540389 0.0979401 1.71141e-20)
(0.589874 0.0901664 -3.12982e-20)
(0.633893 0.0825904 4.94372e-20)
(0.67297 0.0754518 -1.70308e-20)
(0.707691 0.0688594 -1.9607e-20)
(0.738581 0.0628453 -5.98653e-21)
(0.766122 0.0573947 2.21754e-20)
(0.790735 0.0524694 -3.9903e-20)
(0.812783 0.048022 4.04775e-20)
(0.832582 0.0440035 -3.06188e-20)
(0.850387 0.0403682 2.19671e-20)
(0.866503 0.0370855 3.74549e-20)
(0.126825 0.0861978 9.72479e-20)
(0.201299 0.0968689 1.74025e-20)
(0.278661 0.100307 -5.34152e-20)
(0.35161 0.0991928 -6.46199e-21)
(0.419899 0.0951413 -2.81734e-20)
(0.48179 0.0894851 2.7303e-20)
(0.537565 0.0830596 -3.99114e-20)
(0.587291 0.0764576 1.83874e-20)
(0.631536 0.0700266 -7.8736e-20)
(0.67082 0.0639692 8.20176e-21)
(0.705726 0.0583768 1.50609e-20)
(0.736782 0.0532762 1.30181e-20)
(0.764471 0.0486544 1.62204e-20)
(0.789215 0.0444786 1.18077e-20)
(0.811381 0.0407084 -2.76962e-20)
(0.831286 0.0373023 3.14517e-20)
(0.849188 0.0342211 -4.00659e-20)
(0.865377 0.0314404 -2.35357e-20)
(0.124065 0.0707384 -4.86637e-20)
(0.198288 0.079476 5.50232e-20)
(0.275627 0.0822778 7.0971e-20)
(0.348674 0.0813476 1.15886e-20)
(0.417132 0.0780111 1.09687e-21)
(0.479222 0.0733622 -1.46891e-20)
(0.535205 0.0680858 -1.5074e-23)
(0.585133 0.0626675 6.13123e-20)
(0.629568 0.0573918 4.04374e-20)
(0.669024 0.0524241 -2.21505e-20)
(0.704085 0.0478388 -2.52425e-20)
(0.73528 0.0436576 -5.41349e-20)
(0.763093 0.0398693 -3.66977e-20)
(0.787947 0.0364472 3.07256e-20)
(0.810211 0.0333578 1.02662e-20)
(0.830203 0.0305669 -4.33458e-20)
(0.848188 0.0280423 -1.5525e-20)
(0.864437 0.0257653 1.2193e-20)
(0.121849 0.0551517 -2.61617e-20)
(0.195872 0.0619518 -4.79357e-20)
(0.273193 0.064124 -3.79768e-20)
(0.346318 0.0633887 1.37597e-21)
(0.414913 0.0607801 -7.96278e-21)
(0.477163 0.0571512 -3.60915e-20)
(0.533313 0.0530353 1.21668e-20)
(0.583404 0.0488108 -1.59759e-20)
(0.62799 0.0446987 -1.87479e-20)
(0.667584 0.0408277 4.05564e-20)
(0.702771 0.0372553 7.71817e-21)
(0.734077 0.0339983 4.45016e-20)
(0.761989 0.0310477 2.82754e-20)
(0.786931 0.0283825 -1.27023e-20)
(0.809274 0.0259766 -1.5362e-20)
(0.829337 0.0238035 -9.72724e-21)
(0.847386 0.0218377 3.73691e-20)
(0.863684 0.0200654 1.63898e-20)
(0.120182 0.0394657 2.44905e-20)
(0.194055 0.044325 -2.03777e-21)
(0.271364 0.0458728 3.13423e-20)
(0.344548 0.0453413 1.98746e-20)
(0.413245 0.0434707 3.2262e-20)
(0.475616 0.0408715 1.6896e-20)
(0.531892 0.0379252 -3.75136e-21)
(0.582105 0.0349021 1.80243e-20)
(0.626805 0.0319602 1.90669e-20)
(0.666504 0.0291913 -4.01312e-21)
(0.701784 0.0266364 -2.4784e-20)
(0.733173 0.0243072 -2.05207e-20)
(0.76116 0.0221974 -6.04971e-21)
(0.786168 0.0202918 -1.06476e-20)
(0.80857 0.0185717 2.04638e-20)
(0.828686 0.0170182 1.62701e-20)
(0.846785 0.0156128 -2.25766e-20)
(0.863119 0.0143462 -5.43719e-21)
(0.119069 0.0237083 -6.41808e-21)
(0.192842 0.0266248 1.37755e-21)
(0.270142 0.0275518 -2.49741e-20)
(0.343366 0.0272304 1.5176e-21)
(0.412132 0.0261051 -1.1247e-20)
(0.474583 0.0245427 9.45588e-21)
(0.530943 0.0227723 -1.10545e-20)
(0.581238 0.0209563 -1.07294e-20)
(0.626014 0.0191892 3.39533e-21)
(0.665782 0.0175263 -8.52818e-21)
(0.701125 0.015992 1.28576e-20)
(0.73257 0.0145934 2.30764e-20)
(0.760606 0.0133266 8.86655e-21)
(0.785659 0.0121825 1.36822e-20)
(0.808101 0.0111498 -1.65032e-20)
(0.828252 0.0102171 9.6531e-21)
(0.846383 0.00937344 5.04223e-21)
(0.862742 0.00861319 -5.96976e-21)
(0.580804 0.00698798 -4.97014e-21)
(0.625619 0.00639864 -8.29739e-22)
(0.665422 0.00584405 -4.67348e-22)
(0.700796 0.00533241 2.82233e-21)
(0.732269 0.00486602 -2.82974e-21)
(0.76033 0.00444359 -7.14521e-21)
(0.785405 0.00406208 -2.35637e-21)
(0.807866 0.00371774 5.57442e-21)
(0.828035 0.00340674 8.95708e-22)
(0.846183 0.00312541 -3.83644e-21)
(0.862553 0.00287194 -1.31732e-21)
(1.01068 0.171172 -9.43274e-21)
(1.01697 0.173584 -7.06216e-23)
(1.02281 0.175821 -6.53045e-20)
(1.02871 0.177916 3.08128e-20)
(1.03463 0.179864 2.20076e-20)
(1.04057 0.181658 9.82192e-20)
(1.04652 0.183297 1.40557e-21)
(1.05249 0.184783 -2.51368e-20)
(1.05848 0.186119 -1.8706e-20)
(1.06449 0.187306 -1.66882e-21)
(1.07051 0.188347 2.48075e-20)
(1.07655 0.189245 1.69125e-20)
(1.0826 0.190002 -2.54852e-20)
(1.08866 0.19062 2.42062e-21)
(1.09473 0.191101 1.64315e-20)
(1.01289 0.169096 -1.17769e-20)
(1.01909 0.171327 -1.17948e-20)
(1.0247 0.173427 5.20823e-20)
(1.03042 0.175412 -1.52415e-20)
(1.03618 0.177272 -1.27351e-20)
(1.04196 0.178993 -7.35323e-20)
(1.04777 0.180574 4.48627e-20)
(1.05362 0.182013 3.20809e-20)
(1.05949 0.183311 5.77104e-20)
(1.06538 0.184469 -2.19708e-20)
(1.0713 0.185489 -3.46697e-21)
(1.07724 0.186372 -1.28043e-20)
(1.08319 0.187119 2.78787e-20)
(1.08916 0.187733 3.04156e-20)
(1.01507 0.167284 6.50955e-20)
(1.02113 0.169336 2.32506e-20)
(1.02655 0.171291 -4.60076e-20)
(1.0321 0.173149 -3.6784e-20)
(1.03771 0.1749 -2.33882e-20)
(1.04336 0.176529 1.73593e-20)
(1.04904 0.178032 -5.94212e-21)
(1.05476 0.179406 -1.40527e-20)
(1.06052 0.18065 3.07166e-21)
(1.0663 0.181763 4.3093e-20)
(1.07211 0.182746 -5.1795e-21)
(1.07795 0.183599 2.86445e-20)
(1.08381 0.184324 5.02735e-21)
(1.01733 0.165517 -9.45612e-20)
(1.02325 0.167391 -3.38415e-20)
(1.02849 0.169206 5.54918e-20)
(1.03389 0.170938 4.95888e-20)
(1.03935 0.172578 5.44478e-20)
(1.04486 0.174112 -1.13225e-20)
(1.05041 0.175532 -3.21962e-20)
(1.05601 0.176836 -7.85872e-21)
(1.06164 0.17802 -2.46669e-20)
(1.06732 0.179082 -4.7316e-20)
(1.07302 0.180023 2.30391e-20)
(1.07875 0.180841 1.74522e-20)
(1.01964 0.163763 3.11588e-20)
(1.02541 0.165475 9.39913e-21)
(1.0305 0.167158 -7.2741e-20)
(1.03575 0.168768 -7.21924e-21)
(1.04108 0.170297 -3.32871e-21)
(1.04645 0.171734 1.4256e-20)
(1.05187 0.173069 -2.67201e-20)
(1.05734 0.174299 -9.63925e-21)
(1.06286 0.175418 1.00882e-21)
(1.06841 0.176425 6.05752e-20)
(1.074 0.177319 -1.35463e-20)
(1.07962 0.178098 -5.51932e-20)
(1.02196 0.162012 1.38243e-20)
(1.02759 0.163587 9.81309e-21)
(1.03255 0.165147 8.44423e-20)