/*--------------------------------*- C++ -*----------------------------------*\
  =========                 |
  \\      /  F ield         | OpenFOAM: The Open Source CFD Toolbox
   \\    /   O peration     | Website:  https://openfoam.org
    \\  /    A nd           | Version:  7
     \\/     M anipulation  |
\*---------------------------------------------------------------------------*/
FoamFile
{
    version     2.0;
    format      ascii;
    class       volScalarField;
    location    "5";
    object      p;
}
// * * * * * * * * * * * * * * * * * * * * * * * * * * * * * * * * * * * * * //

dimensions      [0 2 -2 0 0 0 0];

internalField   nonuniform List<scalar> 
2625
(
0.150384
0.146127
0.141782
0.137348
0.132829
0.128228
0.123547
0.118788
0.113958
0.100488
0.109058
0.0956017
0.104094
0.0906844
0.099072
0.0939964
0.207179
0.207218
0.207038
0.20675
0.206332
0.205799
0.205155
0.204406
0.203557
0.202613
0.201577
0.200453
0.199246
0.197958
0.196594
0.195157
0.193649
0.192076
0.190439
0.188742
0.186989
0.185184
0.183329
0.181429
0.179486
0.177505
0.175488
0.173439
0.171363
0.169266
0.207192
0.207232
0.207051
0.206763
0.206346
0.205813
0.20517
0.204421
0.203573
0.202629
0.201593
0.20047
0.199263
0.197976
0.196612
0.195175
0.193668
0.192095
0.190459
0.188763
0.18701
0.185205
0.183351
0.181451
0.179508
0.177527
0.175511
0.173462
0.171386
0.169287
0.207218
0.207259
0.207077
0.206791
0.206373
0.205841
0.205198
0.204451
0.203603
0.20266
0.201625
0.200503
0.199297
0.198011
0.196648
0.195212
0.193706
0.192134
0.190498
0.188803
0.187051
0.185247
0.183393
0.181494
0.179552
0.177571
0.175555
0.173507
0.171431
0.169331
0.207258
0.207299
0.207117
0.206831
0.206414
0.205882
0.20524
0.204494
0.203647
0.202705
0.201672
0.200551
0.199347
0.198062
0.196701
0.195266
0.193762
0.192191
0.190556
0.188862
0.187112
0.185309
0.183456
0.181558
0.179617
0.177637
0.175621
0.173573
0.171497
0.169396
0.207309
0.20735
0.207168
0.206883
0.206467
0.205937
0.205296
0.20455
0.203705
0.202765
0.201733
0.200614
0.199412
0.198129
0.19677
0.195337
0.193834
0.192265
0.190633
0.18894
0.187192
0.18539
0.183539
0.181641
0.179701
0.177722
0.175707
0.17366
0.171585
0.169483
0.207372
0.207414
0.207232
0.206947
0.206532
0.206003
0.205364
0.20462
0.203777
0.202838
0.201809
0.200692
0.199492
0.198211
0.196854
0.195424
0.193924
0.192357
0.190726
0.189036
0.187289
0.18549
0.18364
0.181744
0.179805
0.177827
0.175814
0.173767
0.171693
0.169589
0.207446
0.207488
0.207306
0.207023
0.206609
0.206081
0.205443
0.204702
0.203861
0.202925
0.201898
0.200783
0.199586
0.198308
0.196954
0.195526
0.194029
0.192465
0.190837
0.189149
0.187405
0.185607
0.183759
0.181865
0.179928
0.177952
0.175939
0.173893
0.17182
0.169715
0.207532
0.207574
0.207392
0.20711
0.206696
0.206171
0.205535
0.204796
0.203957
0.203024
0.201999
0.200888
0.199694
0.198419
0.197068
0.195644
0.19415
0.192588
0.190964
0.189279
0.187537
0.185742
0.183896
0.182004
0.180069
0.178094
0.176083
0.174038
0.171966
0.169859
0.207627
0.20767
0.207488
0.207207
0.206795
0.206271
0.205638
0.204901
0.204065
0.203135
0.202114
0.201006
0.199815
0.198544
0.197197
0.195776
0.194285
0.192727
0.191106
0.189424
0.187686
0.185893
0.18405
0.182161
0.180228
0.178254
0.176245
0.174201
0.172131
0.170021
0.207732
0.207775
0.207594
0.207314
0.206904
0.206382
0.205751
0.205017
0.204184
0.203257
0.20224
0.201136
0.199949
0.198682
0.197339
0.195922
0.194435
0.192881
0.191264
0.189585
0.18785
0.186061
0.184221
0.182334
0.180403
0.178432
0.176424
0.174382
0.172313
0.170201
0.207848
0.20789
0.207709
0.207431
0.207023
0.206503
0.205875
0.205144
0.204314
0.203391
0.202378
0.201278
0.200095
0.198833
0.197494
0.196081
0.194599
0.193049
0.191435
0.189761
0.188029
0.186244
0.184407
0.182523
0.180594
0.178625
0.176619
0.174579
0.172512
0.170397
0.207972
0.208015
0.207834
0.207558
0.207151
0.206634
0.206008
0.205281
0.204455
0.203536
0.202527
0.201431
0.200253
0.198995
0.197661
0.196253
0.194776
0.19323
0.191621
0.189951
0.188224
0.186441
0.184608
0.182727
0.180802
0.178835
0.176831
0.174792
0.172728
0.17061
0.208105
0.208148
0.207967
0.207693
0.207288
0.206774
0.206151
0.205427
0.204605
0.20369
0.202686
0.201595
0.200422
0.199169
0.19784
0.196438
0.194965
0.193425
0.191821
0.190155
0.188432
0.186654
0.184824
0.182947
0.181024
0.17906
0.177059
0.175021
0.17296
0.170838
0.208246
0.208289
0.208109
0.207837
0.207434
0.206922
0.206303
0.205583
0.204765
0.203855
0.202855
0.20177
0.200602
0.199355
0.198031
0.196634
0.195167
0.193632
0.192033
0.190373
0.188654
0.18688
0.185055
0.183181
0.181261
0.1793
0.177301
0.175266
0.173207
0.171081
0.208395
0.208439
0.208259
0.207989
0.207588
0.207079
0.206464
0.205747
0.204934
0.204029
0.203035
0.201955
0.200792
0.199551
0.198233
0.196842
0.195381
0.193852
0.192258
0.190603
0.188889
0.18712
0.185299
0.183428
0.181513
0.179555
0.177558
0.175525
0.17347
0.171339
0.208552
0.208595
0.208417
0.208148
0.207749
0.207244
0.206632
0.20592
0.205112
0.204212
0.203223
0.202149
0.200993
0.199757
0.198446
0.197061
0.195606
0.194083
0.192495
0.190845
0.189137
0.187372
0.185556
0.18369
0.181778
0.179823
0.17783
0.175798
0.173747
0.171611
0.208716
0.20876
0.208581
0.208315
0.207919
0.207417
0.206809
0.206102
0.205298
0.204403
0.20342
0.202352
0.201202
0.199973
0.198668
0.19729
0.195841
0.194325
0.192743
0.191099
0.189396
0.187637
0.185826
0.183964
0.182056
0.180105
0.178115
0.176085
0.174038
0.171896
0.208887
0.208931
0.208753
0.208489
0.208095
0.207597
0.206993
0.20629
0.205492
0.204603
0.203626
0.202564
0.201421
0.200199
0.198901
0.19753
0.196088
0.194578
0.193002
0.191365
0.189668
0.187915
0.186108
0.184251
0.182347
0.180399
0.178412
0.176385
0.174343
0.172195
0.209064
0.209108
0.208931
0.208669
0.208278
0.207784
0.207184
0.206486
0.205694
0.20481
0.20384
0.202785
0.201648
0.200433
0.199143
0.197779
0.196344
0.194841
0.193273
0.191642
0.189951
0.188203
0.186402
0.18455
0.18265
0.180707
0.178723
0.176698
0.174661
0.172505
0.209248
0.209292
0.209116
0.208856
0.208468
0.207977
0.207382
0.206689
0.205902
0.205025
0.204061
0.203013
0.201884
0.200677
0.199393
0.198037
0.196609
0.195114
0.193553
0.191929
0.190244
0.188503
0.186707
0.18486
0.182965
0.181026
0.179046
0.177024
0.174991
0.172828
0.209437
0.209481
0.209306
0.209049
0.208664
0.208177
0.207586
0.206899
0.206118
0.205247
0.20429
0.203249
0.202127
0.200928
0.199652
0.198304
0.196884
0.195397
0.193843
0.192226
0.190549
0.188813
0.187023
0.185182
0.183292
0.181356
0.179381
0.177361
0.175334
0.173162
0.209632
0.209676
0.209502
0.209248
0.208865
0.208382
0.207796
0.207114
0.206339
0.205475
0.204525
0.203492
0.202378
0.201187
0.19992
0.198579
0.197168
0.195688
0.194142
0.192533
0.190863
0.189134
0.18735
0.185514
0.183629
0.181698
0.179727
0.177709
0.175689
0.173507
0.209832
0.209876
0.209704
0.209451
0.209072
0.208594
0.208012
0.207336
0.206567
0.20571
0.204768
0.203742
0.202637
0.201453
0.200195
0.198863
0.19746
0.195989
0.194451
0.192849
0.191186
0.189465
0.187688
0.185857
0.183978
0.182051
0.180084
0.178069
0.176055
0.173863
0.210038
0.210082
0.20991
0.20966
0.209284
0.20881
0.208234
0.207563
0.206801
0.205951
0.205016
0.203999
0.202901
0.201727
0.200477
0.199154
0.19776
0.196297
0.194768
0.193175
0.19152
0.189805
0.188034
0.18621
0.184336
0.182414
0.180451
0.178439
0.176433
0.174229
0.210248
0.210292
0.210121
0.209874
0.209501
0.209031
0.20846
0.207796
0.20704
0.206198
0.20527
0.204261
0.203173
0.202007
0.200766
0.199452
0.198068
0.196614
0.195094
0.193509
0.191861
0.190155
0.188391
0.186573
0.184704
0.182787
0.180829
0.178819
0.176821
0.174604
0.210462
0.210506
0.210336
0.210092
0.209722
0.209257
0.208691
0.208033
0.207285
0.206449
0.20553
0.20453
0.20345
0.202294
0.201062
0.199758
0.198383
0.196938
0.195427
0.193851
0.192212
0.190513
0.188756
0.186945
0.185082
0.18317
0.181217
0.179209
0.17722
0.174989
0.21068
0.210724
0.210556
0.210314
0.209948
0.209487
0.208927
0.208275
0.207534
0.206706
0.205795
0.204804
0.203733
0.202586
0.201365
0.20007
0.198704
0.19727
0.195768
0.194201
0.192571
0.19088
0.18913
0.187326
0.185469
0.183562
0.181614
0.179608
0.177628
0.175382
0.210903
0.210946
0.210779
0.21054
0.210178
0.209722
0.209167
0.208522
0.207787
0.206968
0.206066
0.205083
0.204022
0.202885
0.201673
0.200388
0.199033
0.197608
0.196116
0.194558
0.192937
0.191254
0.189513
0.187715
0.185865
0.183963
0.182021
0.180016
0.178047
0.175784
0.211128
0.211172
0.211006
0.21077
0.210411
0.20996
0.209411
0.208772
0.208045
0.207234
0.20634
0.205367
0.204316
0.203188
0.201987
0.200713
0.199368
0.197953
0.196471
0.194923
0.193311
0.191637
0.189904
0.188113
0.186269
0.184373
0.182436
0.180433
0.178474
0.176194
0.211358
0.211401
0.211236
0.211003
0.210648
0.210202
0.209659
0.209027
0.208307
0.207504
0.206619
0.205656
0.204614
0.203497
0.202306
0.201043
0.199708
0.198304
0.196833
0.195295
0.193692
0.192027
0.190302
0.188519
0.186682
0.184791
0.18286
0.180859
0.178911
0.176611
0.21159
0.211633
0.21147
0.21124
0.210888
0.210447
0.20991
0.209285
0.208573
0.207778
0.206903
0.205948
0.204917
0.203811
0.20263
0.201378
0.200055
0.198662
0.197201
0.195673
0.19408
0.192425
0.190708
0.188933
0.187103
0.185217
0.183292
0.181292
0.179356
0.177035
0.211825
0.211868
0.211706
0.211479
0.211131
0.210695
0.210164
0.209546
0.208842
0.208056
0.20719
0.206245
0.205224
0.204129
0.20296
0.201718
0.200406
0.199024
0.197574
0.196058
0.194475
0.192829
0.191121
0.189354
0.187531
0.18565
0.183731
0.181733
0.179809
0.177466
0.212063
0.212105
0.211945
0.211721
0.211377
0.210946
0.210421
0.20981
0.209114
0.208337
0.20748
0.206546
0.205536
0.204451
0.203293
0.202063
0.200763
0.199393
0.197954
0.196448
0.194876
0.19324
0.191542
0.189782
0.187966
0.186092
0.184179
0.182181
0.180271
0.177903
0.212303
0.212345
0.212187
0.211965
0.211625
0.2112
0.210681
0.210077
0.209389
0.208621
0.207774
0.20685
0.205851
0.204777
0.203631
0.202413
0.201124
0.199766
0.198339
0.196844
0.195283
0.193657
0.191968
0.190217
0.188409
0.18654
0.184634
0.182636
0.18074
0.178346
0.212545
0.212587
0.21243
0.212212
0.211876
0.211456
0.210943
0.210347
0.209667
0.208908
0.208071
0.207157
0.206169
0.205107
0.203973
0.202767
0.20149
0.200144
0.198729
0.197246
0.195696
0.194081
0.192401
0.190659
0.188858
0.186995
0.185096
0.183097
0.181217
0.178795
0.21279
0.212831
0.212676
0.21246
0.212128
0.211714
0.211207
0.210619
0.209948
0.209198
0.208371
0.207468
0.206491
0.20544
0.204318
0.203124
0.20186
0.200526
0.199123
0.197652
0.196114
0.19451
0.192841
0.191107
0.189315
0.187457
0.185564
0.183565
0.1817
0.179248
0.213036
0.213077
0.212924
0.212711
0.212383
0.211974
0.211474
0.210893
0.21023
0.20949
0.208673
0.207781
0.206815
0.205777
0.204666
0.203485
0.202234
0.200913
0.199523
0.198064
0.196538
0.194945
0.193286
0.191561
0.189777
0.187926
0.18604
0.184039
0.18219
0.179706
0.213284
0.213325
0.213173
0.212963
0.212639
0.212236
0.211742
0.211169
0.210515
0.209784
0.208977
0.208096
0.207142
0.206116
0.205018
0.20385
0.202611
0.201303
0.199926
0.19848
0.196966
0.195385
0.193737
0.192022
0.190246
0.1884
0.186522
0.184519
0.182687
0.180169
0.213534
0.213574
0.213423
0.213217
0.212897
0.212499
0.212012
0.211447
0.210802
0.21008
0.209284
0.208414
0.207472
0.206458
0.205373
0.204218
0.202992
0.201698
0.200334
0.198901
0.197399
0.19583
0.194193
0.192488
0.190721
0.188881
0.18701
0.185005
0.183189
0.180635
0.213784
0.213824
0.213675
0.213471
0.213156
0.212764
0.212284
0.211726
0.21109
0.210378
0.209593
0.208734
0.207804
0.167045
0.164682
0.162232
0.159693
0.157066
0.154349
0.151543
0.148646
0.145658
0.14258
0.139411
0.136152
0.132804
0.129367
0.125844
0.122235
0.118543
0.11477
0.110919
0.106992
0.102994
0.098928
0.0947983
0.0906096
0.0863672
0.167071
0.164711
0.162266
0.159733
0.157111
0.1544
0.151598
0.148706
0.145723
0.142649
0.139485
0.13623
0.132885
0.129452
0.125932
0.122326
0.118637
0.114865
0.111015
0.10709
0.103092
0.0990252
0.0948945
0.0907042
0.0864593
0.167123
0.164769
0.162334
0.15981
0.157197
0.154494
0.151701
0.148817
0.145842
0.142775
0.139618
0.136369
0.13303
0.129602
0.126086
0.122484
0.118797
0.115028
0.111179
0.107253
0.103255
0.0991866
0.0950532
0.0908593
0.0866098
0.167196
0.164847
0.162419
0.159903
0.157297
0.154601
0.151815
0.148938
0.145969
0.142908
0.139756
0.136512
0.133178
0.129754
0.126241
0.122641
0.118956
0.115188
0.111339
0.107413
0.103413
0.0993426
0.0952061
0.0910081
0.0867538
0.16729
0.164942
0.16252
0.16001
0.157409
0.154719
0.151938
0.149066
0.146101
0.143045
0.139897
0.136657
0.133326
0.129904
0.126393
0.122795
0.119111
0.115343
0.111494
0.107567
0.103564
0.0994914
0.0953514
0.0911492
0.0868898
0.167405
0.165055
0.162638
0.160132
0.157536
0.15485
0.152073
0.149204
0.146243
0.14319
0.140045
0.136807
0.133478
0.130059
0.126549
0.122952
0.119268
0.115499
0.111649
0.10772
0.103716
0.0996395
0.0954957
0.0912889
0.0870242
0.167539
0.165186
0.162773
0.16027
0.157677
0.154993
0.152219
0.149353
0.146395
0.143344
0.140201
0.136965
0.133637
0.130219
0.12671
0.123112
0.119428
0.115658
0.111807
0.107875
0.103868
0.0997882
0.0956402
0.0914285
0.0871583
0.167693
0.165333
0.162923
0.160422
0.157831
0.155149
0.152377
0.149512
0.146556
0.143506
0.140364
0.137129
0.133802
0.130383
0.126874
0.123276
0.11959
0.115819
0.111965
0.108032
0.104021
0.0999371
0.0957845
0.0915676
0.0872915
0.167866
0.165497
0.163089
0.160589
0.157998
0.155317
0.152545
0.149681
0.146725
0.143676
0.140534
0.137299
0.133972
0.130552
0.127042
0.123443
0.119755
0.115982
0.112126
0.108189
0.104174
0.100086
0.0959285
0.0917061
0.0874238
0.168057
0.165676
0.163269
0.160769
0.158177
0.155496
0.152724
0.149859
0.146903
0.143853
0.14071
0.137475
0.134146
0.130726
0.127214
0.123613
0.119923
0.116147
0.112287
0.108346
0.104328
0.100235
0.0960721
0.0918438
0.0875552
0.168266
0.165871
0.163464
0.160962
0.158369
0.155686
0.152912
0.150047
0.147089
0.144038
0.140893
0.137656
0.134326
0.130903
0.127389
0.123785
0.120092
0.116313
0.11245
0.108505
0.104482
0.100384
0.0962154
0.091981
0.0876856
0.168492
0.16608
0.163673
0.161168
0.158572
0.155887
0.153111
0.150243
0.147282
0.144229
0.141082
0.137842
0.13451
0.131084
0.127567
0.12396
0.120264
0.116481
0.112613
0.108664
0.104636
0.100533
0.0963583
0.0921175
0.0878153
0.168735
0.166303
0.163895
0.161386
0.158786
0.156098
0.153318
0.150447
0.147484
0.144427
0.141277
0.138034
0.134698
0.131269
0.127749
0.124138
0.120438
0.11665
0.112778
0.108824
0.10479
0.100681
0.0965008
0.0922534
0.087944
0.168995
0.16654
0.164131
0.161616
0.159012
0.156319
0.153535
0.15066
0.147692
0.144632
0.141478
0.138231
0.134891
0.131458
0.127934
0.124318
0.120614
0.116821
0.112944
0.108984
0.104945
0.10083
0.096643
0.0923886
0.088072
0.16927
0.16679
0.164379
0.161858
0.159248
0.15655
0.153761
0.15088
0.147908
0.144843
0.141684
0.138433
0.135088
0.13165
0.128121
0.124501
0.120791
0.116994
0.113111
0.109145
0.1051
0.100979
0.0967849
0.0925233
0.0881991
0.169561
0.167053
0.164639
0.162111
0.159494
0.156789
0.153995
0.151108
0.14813
0.14506
0.141896
0.138639
0.135289
0.131846
0.128311
0.124686
0.12097
0.117167
0.113279
0.109307
0.105255
0.101127
0.0969264
0.0926574
0.0883254
0.169867
0.167327
0.164911
0.162375
0.15975
0.157038
0.154237
0.151344
0.148359
0.145282
0.142113
0.13885
0.135494
0.132045
0.128505
0.124873
0.121152
0.117342
0.113447
0.109469
0.105411
0.101276
0.0970675
0.0927909
0.088451
0.170187
0.167614
0.165195
0.162648
0.160016
0.157296
0.154487
0.151586
0.148595
0.145511
0.142334
0.139065
0.135702
0.132247
0.1287
0.125062
0.121334
0.117519
0.113617
0.109632
0.105566
0.101424
0.0972083
0.0929239
0.0885758
0.170522
0.167912
0.16549
0.162932
0.160291
0.157562
0.154744
0.151836
0.148836
0.145745
0.142561
0.139284
0.135915
0.132452
0.128899
0.125254
0.121519
0.117696
0.113787
0.109795
0.105722
0.101572
0.0973487
0.0930562
0.0886998
0.17087
0.16822
0.165796
0.163226
0.160575
0.157836
0.155009
0.152092
0.149084
0.145984
0.142792
0.139507
0.13613
0.132661
0.129099
0.125447
0.121705
0.117875
0.113959
0.109959
0.105878
0.10172
0.0974888
0.093188
0.0888231
0.171232
0.16854
0.166113
0.163529
0.160868
0.158119
0.155282
0.152355
0.149337
0.146228
0.143028
0.139735
0.136349
0.132872
0.129302
0.125642
0.121892
0.118054
0.11413
0.110123
0.106034
0.101868
0.0976285
0.0933192
0.0889456
0.171608
0.168869
0.16644
0.163841
0.161169
0.158408
0.155561
0.152623
0.149596
0.146478
0.143268
0.139966
0.136572
0.133085
0.129508
0.125839
0.122081
0.118235
0.114303
0.110287
0.10619
0.102016
0.0977678
0.0934499
0.0890674
0.171996
0.169207
0.166778
0.164161
0.161478
0.158705
0.155847
0.152898
0.149861
0.146732
0.143512
0.1402
0.136797
0.133302
0.129715
0.126038
0.122271
0.118417
0.114476
0.110452
0.106347
0.102164
0.0979068
0.09358
0.0891885
0.172396
0.169555
0.167124
0.16449
0.161795
0.159009
0.156139
0.153179
0.15013
0.146991
0.14376
0.140439
0.137025
0.133521
0.129925
0.126238
0.122463
0.118599
0.11465
0.110617
0.106503
0.102311
0.0980453
0.0937095
0.0893089
0.172808
0.169912
0.167481
0.164827
0.16212
0.15932
0.156438
0.153465
0.150405
0.147254
0.144013
0.14068
0.137257
0.133742
0.130136
0.12644
0.122656
0.118783
0.114824
0.110782
0.106659
0.102458
0.0981835
0.0938384
0.0894285
0.173232
0.170277
0.167847
0.165172
0.162453
0.159638
0.156742
0.153757
0.150684
0.147521
0.144269
0.140925
0.137491
0.133966
0.13035
0.126644
0.122849
0.118967
0.114999
0.110948
0.106816
0.102605
0.0983212
0.0939668
0.0895475
0.173668
0.17065
0.168221
0.165524
0.162792
0.159962
0.157053
0.154054
0.150968
0.147793
0.144528
0.141173
0.137728
0.134192
0.130565
0.126849
0.123044
0.119152
0.115175
0.111114
0.106972
0.102752
0.0984586
0.0940946
0.0896658
0.174114
0.171031
0.168605
0.165883
0.163139
0.160292
0.157369
0.154356
0.151257
0.148069
0.144792
0.141424
0.137967
0.13442
0.130782
0.127056
0.123241
0.119338
0.115351
0.11128
0.107128
0.102899
0.0985955
0.0942219
0.0897833
0.174571
0.171418
0.168996
0.166249
0.163492
0.160628
0.157691
0.154662
0.15155
0.148348
0.145058
0.141679
0.138209
0.13465
0.131001
0.127264
0.123438
0.119525
0.115527
0.111446
0.107284
0.103045
0.098732
0.0943485
0.0899002
0.175038
0.171813
0.169396
0.166621
0.163851
0.16097
0.158017
0.154974
0.151847
0.148631
0.145328
0.141935
0.138454
0.134882
0.131222
0.127473
0.123636
0.119712
0.115704
0.111612
0.107441
0.103191
0.0988681
0.0944746
0.0900163
0.0854966
0.175516
0.172214
0.169804
0.167
0.164217
0.161317
0.158349
0.15529
0.152149
0.148918
0.145601
0.142195
0.1387
0.135116
0.131444
0.127683
0.123835
0.1199
0.115881
0.111779
0.107597
0.103337
0.0990037
0.0946002
0.0901317
0.085602
0.176002
0.172621
0.170219
0.167384
0.164589
0.161669
0.158686
0.155611
0.152454
0.149209
0.145877
0.142457
0.138949
0.135352
0.131667
0.127894
0.124034
0.120088
0.116058
0.111945
0.107753
0.103483
0.0991389
0.0947251
0.0902465
0.0857066
0.176498
0.173034
0.170642
0.167774
0.164967
0.162027
0.159028
0.155935
0.152763
0.149502
0.146156
0.142722
0.1392
0.13559
0.131892
0.128107
0.124235
0.120277
0.116236
0.112112
0.107908
0.103628
0.0992736
0.0948495
0.0903605
0.0858105
0.177003
0.173453
0.171072
0.16817
0.16535
0.162389
0.159374
0.156264
0.153076
0.149799
0.146438
0.142989
0.139453
0.13583
0.132119
0.128321
0.124436
0.120467
0.116414
0.112278
0.108064
0.103773
0.0994078
0.0949732
0.0904739
0.0859135
0.177516
0.173876
0.171508
0.168571
0.165738
0.162756
0.159724
0.156597
0.153392
0.150099
0.146722
0.143259
0.139708
0.136071
0.132346
0.128535
0.124638
0.120657
0.116592
0.112445
0.108219
0.103917
0.0995415
0.0950964
0.0905865
0.0860158
0.178036
0.174305
0.171951
0.168977
0.166132
0.163128
0.160079
0.156933
0.153711
0.150402
0.147009
0.14353
0.139965
0.136313
0.132575
0.12875
0.124841
0.120847
0.11677
0.112612
0.108374
0.104061
0.0996748
0.0952189
0.0906985
0.0861172
0.178564
0.174738
0.172399
0.169388
0.16653
0.163504
0.160438
0.157273
0.154034
0.150708
0.147299
0.143804
0.140223
0.136557
0.132805
0.128967
0.125044
0.121037
0.116948
0.112778
0.108529
0.104205
0.0998075
0.0953409
0.0908097
0.086218
0.179099
0.175175
0.172853
0.169803
0.166933
0.163884
0.1608
0.157617
0.15436
0.151017
0.147591
0.14408
0.140484
0.136802
0.133035
0.129184
0.125248
0.121228
0.117126
0.112944
0.108684
0.104348
0.0999397
0.0954622
0.0909203
0.0863179
0.179639
0.175617
0.173312
0.170224
0.16734
0.164269
0.161166
0.157964
0.154689
0.151328
0.147885
0.144357
0.140745
0.137049
0.133267
0.129401
0.125452
0.121419
0.117305
0.11311
0.108838
0.104491
0.100071
0.0955829
0.0910301
0.0864171
0.180185
0.176063
0.173775
0.170648
0.167751
0.164657
0.161536
0.158314
0.15502
0.151641
0.148181
0.144637
0.141009
0.137296
0.1335
0.12962
0.125656
0.12161
0.117483
0.113276
0.108992
0.104633
0.100202
0.0957029
0.0911393
0.0865155
0.176514
0.174242
0.171077
0.168166
0.165049
0.161909
0.158667
0.155355
0.151957
0.148479
0.144918
0.141273
0.137545
0.133734
0.129839
0.125861
0.121802
0.117661
0.113442
0.109146
0.104775
0.100333
0.0958223
0.0912477
0.0866132
0.176969
0.174712
0.171511
0.168584
0.165444
0.162285
0.159023
0.155692
0.152275
0.148779
0.1452
0.141539
0.137795
0.133968
0.130058
0.126066
0.121993
0.11784
0.113608
0.109299
0.104917
0.100463
0.095941
0.0913554
0.0867101
0.175184
0.171948
0.169006
0.165843
0.162664
0.159382
0.156031
0.152595
0.149081
0.145485
0.141806
0.138046
0.134203
0.130278
0.126271
0.122184
0.118018
0.113773
0.109452
0.105058
0.100592
0.096059
0.0914624
0.0868062
0.175658
0.17239
0.16943
0.166245
0.163045
0.159743
0.156372
0.152918
0.149385
0.14577
0.142074
0.138297
0.134438
0.130498
0.126477
0.122376
0.118196
0.113938
0.109605
0.105198
0.100721
0.0961764
0.0915686
0.0869015
0.172835
0.169857
0.166651
0.16343
0.160107
0.156716
0.153242
0.14969
0.146057
0.142344
0.138549
0.134674
0.130719
0.126683
0.122567
0.118373
0.114103
0.109757
0.105338
0.100849
0.0962931
0.0916741
0.0869961
0.173285
0.170287
0.167059
0.163817
0.160473
0.157062
0.153568
0.149997
0.146345
0.142614
0.138802
0.134911
0.130939
0.126888
0.122759
0.118551
0.114267
0.109908
0.105477
0.100976
0.096409
0.0917789
0.0870899
0.170718
0.16747
0.164206
0.160841
0.157409
0.153895
0.150304
0.146634
0.142885
0.139056
0.135148
0.13116
0.127094
0.12295
0.118728
0.114431
0.110059
0.105616
0.101103
0.0965243
0.0918829
0.087183
0.171152
0.167884
0.164598
0.161212
0.157759
0.154224
0.150614
0.146924
0.143157
0.13931
0.135385
0.131382
0.1273
0.123141
0.118905
0.114594
0.11021
0.105754
0.101229
0.0966388
0.0919862
0.0872753
0.1683
0.164991
0.161584
0.15811
0.154555
0.150924
0.147215
0.143429
0.139565
0.135623
0.131603
0.127505
0.123331
0.119081
0.114757
0.11036
0.105891
0.101355
0.0967526
0.0920887
0.0873668
0.168718
0.165387
0.161958
0.158462
0.154886
0.151235
0.147507
0.143702
0.13982
0.13586
0.131824
0.127711
0.123522
0.119257
0.114919
0.110509
0.106028
0.101479
0.0968656
0.0921904
0.0874575
0.165784
0.162334
0.158816
0.155219
0.151547
0.147799
0.143975
0.140075
0.136098
0.132045
0.127916
0.123712
0.119433
0.115081
0.110658
0.106164
0.101603
0.0969779
0.0922913
0.0875474
0.166183
0.162711
0.159171
0.155552
0.15186
0.148092
0.144249
0.14033
0.136336
0.132266
0.128121
0.123901
0.119608
0.115242
0.110806
0.106299
0.101727
0.0970894
0.0923915
0.0876366
0.163089
0.159527
0.155887
0.152174
0.148386
0.144523
0.140586
0.136573
0.132487
0.128326
0.124091
0.119783
0.115403
0.110953
0.106434
0.101849
0.0972003
0.092491
0.087725
0.163469
0.159884
0.156223
0.152488
0.14868
0.144797
0.140841
0.136811
0.132707
0.12853
0.12428
0.119957
0.115563
0.1111
0.106568
0.101971
0.0973103
0.0925897
0.0878127
0.163849
0.160241
0.156558
0.152802
0.148973
0.145071
0.141095
0.137047
0.132926
0.128733
0.124467
0.12013
0.115722
0.111245
0.106701
0.102091
0.0974188
0.0926868
0.0878989
0.160595
0.156889
0.153112
0.149263
0.145341
0.141347
0.137281
0.133143
0.128933
0.124651
0.1203
0.115878
0.111388
0.106831
0.102209
0.0975251
0.0927819
0.0879831
0.160958
0.15723
0.153432
0.149561
0.14562
0.141607
0.137522
0.133367
0.12914
0.124843
0.120476
0.11604
0.111536
0.106966
0.102332
0.0976361
0.0928812
0.0880711
0.16136
0.157609
0.153787
0.149895
0.145932
0.141898
0.137794
0.13362
0.129376
0.125061
0.120678
0.116226
0.111708
0.107123
0.102475
0.0977659
0.0929982
0.0881755
0.157949
0.154104
0.150189
0.146204
0.14215
0.138027
0.133835
0.129573
0.125243
0.120845
0.11638
0.111848
0.107252
0.102593
0.0978732
0.0930955
0.0882633
0.157935
0.154076
0.150148
0.146151
0.142087
0.137954
0.133753
0.129484
0.125149
0.120746
0.116278
0.111745
0.107149
0.102491
0.0977736
0.0929994
0.0881715
)
;

boundaryField
{
    inlet
    {
        type            zeroGradient;
    }
    outlet
    {
        type            fixedValue;
        value           nonuniform 0();
    }
    cylinder
    {
        type            zeroGradient;
    }
    top
    {
        type            symmetryPlane;
    }
    bottom
    {
        type            symmetryPlane;
    }
    defaultFaces
    {
        type            empty;
    }
    procBoundary0to1
    {
        type            processor;
        value           nonuniform List<scalar> 
61
(
0.0820762
0.0821652
0.0823101
0.0824484
0.0825787
0.082707
0.0828348
0.0829615
0.083087
0.0832114
0.0833346
0.0834568
0.0835779
0.0836981
0.0838172
0.0839353
0.0840525
0.0841688
0.0842841
0.0843986
0.0845121
0.0846248
0.0847366
0.0848476
0.0849578
0.0850672
0.0851757
0.0852835
0.0853904
0.0853904
0.0809218
0.081017
0.0811113
0.0812048
0.0812975
0.0813893
0.0814804
0.0815706
0.08166
0.0817486
0.0818364
0.0819234
0.0820096
0.082095
0.0821796
0.0822634
0.0823465
0.0824288
0.0825102
0.082591
0.0826709
0.08275
0.0828284
0.0829061
0.082983
0.0830585
0.0831321
0.0832091
0.0833012
0.0833798
0.0832932
)
;
    }
    procBoundary0to4
    {
        type            processor;
        value           nonuniform List<scalar> 
77
(
0.162602
0.158623
0.15455
0.15455
0.142732
0.13821
0.133643
0.129031
0.124376
0.119677
0.114937
0.110158
0.105341
0.105341
0.0982347
0.093044
0.206802
0.20573
0.204588
0.203376
0.202095
0.200745
0.199325
0.197837
0.19628
0.194654
0.192959
0.191202
0.189368
0.187504
0.185496
0.183697
0.181104
0.214036
0.214075
0.213928
0.213727
0.213416
0.21303
0.212557
0.212007
0.211379
0.210678
0.209903
0.209056
0.206802
0.208137
0.181104
0.180735
0.180735
0.181288
0.177429
0.177429
0.177894
0.176132
0.176132
0.176607
0.173738
0.173738
0.174194
0.171588
0.171588
0.172025
0.169138
0.169138
0.16956
0.166583
0.166583
0.166985
0.167387
0.164225
0.164225
0.164611
0.165038
0.161726
0.161726
0.161726
)
;
    }
    procBoundary0to5
    {
        type            processor;
        value           nonuniform List<scalar> 5(0.0878265 0.0857391 0.0857391 0.0888737 0.0888737);
    }
}


// ************************************************************************* //
