/*--------------------------------*- C++ -*----------------------------------*\
  =========                 |
  \\      /  F ield         | OpenFOAM: The Open Source CFD Toolbox
   \\    /   O peration     | Website:  https://openfoam.org
    \\  /    A nd           | Version:  7
     \\/     M anipulation  |
\*---------------------------------------------------------------------------*/
FoamFile
{
    version     2.0;
    format      ascii;
    class       volVectorField;
    location    "5";
    object      U;
}
// * * * * * * * * * * * * * * * * * * * * * * * * * * * * * * * * * * * * * //

dimensions      [0 1 -1 0 0 0 0];

internalField   nonuniform List<vector> 
2625
(
(1.06656 -0.0589839 -2.71263e-20)
(1.07035 -0.0586382 1.51211e-20)
(1.07421 -0.0582285 9.27167e-20)
(1.07814 -0.057758 -3.30576e-21)
(1.08212 -0.0572297 -7.52759e-21)
(1.08616 -0.056647 3.66032e-20)
(1.09025 -0.0560137 -8.04074e-21)
(1.0944 -0.0553334 -5.70324e-20)
(1.09859 -0.05461 1.27202e-20)
(1.10816 -0.0703898 -2.22333e-20)
(1.10281 -0.0538477 6.18094e-20)
(1.11245 -0.0697297 3.91602e-20)
(1.10708 -0.0530505 -8.92704e-21)
(1.11677 -0.0690339 -7.46945e-21)
(1.11137 -0.0522228 -4.54517e-20)
(1.11569 -0.0513689 6.94778e-22)
(1.00001 -1.11777e-05 0)
(1.00014 -3.35404e-05 0)
(1.00043 -5.50905e-05 0)
(1.00084 -7.65179e-05 0)
(1.00137 -9.76304e-05 0)
(1.00201 -0.000118614 0)
(1.00276 -0.00013951 0)
(1.00361 -0.000160387 0)
(1.00456 -0.000181289 0)
(1.00559 -0.000202255 0)
(1.00672 -0.000223309 0)
(1.00792 -0.000244468 0)
(1.0092 -0.000265739 0)
(1.01056 -0.000287121 0)
(1.01199 -0.000308606 0)
(1.01348 -0.000330178 0)
(1.01504 -0.000351817 0)
(1.01666 -0.000373497 0)
(1.01833 -0.000395188 0)
(1.02006 -0.000416852 0)
(1.02183 -0.000438449 0)
(1.02366 -0.000459928 0)
(1.02552 -0.000481224 0)
(1.02742 -0.000502242 0)
(1.02936 -0.000522836 0)
(1.03132 -0.000542756 0)
(1.03331 -0.000561569 0)
(1.03531 -0.000578494 0)
(1.03732 -0.00059209 0)
(1.03933 -0.000599602 0)
(1.00001 -3.34787e-05 0)
(1.00014 -0.000100127 0)
(1.00043 -0.000164645 0)
(1.00084 -0.000228625 0)
(1.00137 -0.000291717 0)
(1.00201 -0.000354409 0)
(1.00276 -0.000416845 0)
(1.00361 -0.000479223 0)
(1.00456 -0.000541679 0)
(1.00559 -0.000604324 0)
(1.00671 -0.000667235 0)
(1.00792 -0.000730459 0)
(1.0092 -0.000794018 0)
(1.01055 -0.00085791 0)
(1.01198 -0.000922111 0)
(1.01348 -0.000986574 0)
(1.01503 -0.00105124 0)
(1.01665 -0.00111603 0)
(1.01832 -0.00118085 0)
(1.02005 -0.00124559 0)
(1.02183 -0.00131013 0)
(1.02365 -0.00137433 0)
(1.02551 -0.00143797 0)
(1.02741 -0.00150079 0)
(1.02935 -0.00156234 0)
(1.03131 -0.00162188 0)
(1.0333 -0.00167811 0)
(1.0353 -0.00172873 0)
(1.03731 -0.00176951 0)
(1.03932 -0.00179261 0)
(1.00001 -5.55919e-05 0)
(1.00014 -0.000165779 0)
(1.00043 -0.000272887 0)
(1.00084 -0.000378841 0)
(1.00137 -0.000483406 0)
(1.00201 -0.000587287 0)
(1.00276 -0.000690751 0)
(1.00361 -0.000794119 0)
(1.00455 -0.00089762 0)
(1.00559 -0.00100144 0)
(1.00671 -0.00110569 0)
(1.00791 -0.00121047 0)
(1.00919 -0.00131581 0)
(1.01054 -0.00142171 0)
(1.01197 -0.00152812 0)
(1.01346 -0.00163497 0)
(1.01502 -0.00174215 0)
(1.01664 -0.00184955 0)
(1.01831 -0.001957 0)
(1.02003 -0.00206432 0)
(1.02181 -0.00217132 0)
(1.02363 -0.00227774 0)
(1.02549 -0.00238326 0)
(1.02739 -0.00248741 0)
(1.02933 -0.00258946 0)
(1.03129 -0.00268819 0)
(1.03328 -0.00278147 0)
(1.03528 -0.00286547 0)
(1.03729 -0.00293336 0)
(1.0393 -0.00297259 0)
(1.00001 -7.74237e-05 0)
(1.00014 -0.000230564 0)
(1.00043 -0.000379734 0)
(1.00084 -0.000527112 0)
(1.00137 -0.00067262 0)
(1.00201 -0.000817162 0)
(1.00276 -0.00096113 0)
(1.0036 -0.00110497 0)
(1.00454 -0.00124899 0)
(1.00558 -0.00139346 0)
(1.0067 -0.00153855 0)
(1.0079 -0.00168438 0)
(1.00918 -0.00183099 0)
(1.01053 -0.00197837 0)
(1.01196 -0.00212648 0)
(1.01345 -0.00227522 0)
(1.015 -0.00242442 0)
(1.01662 -0.00257393 0)
(1.01829 -0.00272352 0)
(1.02001 -0.00287295 0)
(1.02178 -0.00302192 0)
(1.0236 -0.0031701 0)
(1.02546 -0.00331703 0)
(1.02736 -0.00346206 0)
(1.0293 -0.00360418 0)
(1.03126 -0.0037417 0)
(1.03325 -0.00387165 0)
(1.03525 -0.00398877 0)
(1.03726 -0.00408367 0)
(1.03926 -0.00413927 0)
(1.00001 -9.89574e-05 0)
(1.00014 -0.000294485 0)
(1.00043 -0.000485152 0)
(1.00084 -0.000673402 0)
(1.00137 -0.000859309 0)
(1.002 -0.00104397 0)
(1.00275 -0.00122791 0)
(1.0036 -0.00141169 0)
(1.00454 -0.00159571 0)
(1.00557 -0.00178031 0)
(1.00668 -0.00196572 0)
(1.00788 -0.00215206 0)
(1.00916 -0.00233943 0)
(1.01051 -0.0025278 0)
(1.01193 -0.0027171 0)
(1.01342 -0.00290722 0)
(1.01498 -0.00309795 0)
(1.01659 -0.00328908 0)
(1.01826 -0.00348033 0)
(1.01998 -0.00367138 0)
(1.02175 -0.00386187 0)
(1.02357 -0.00405136 0)
(1.02543 -0.00423925 0)
(1.02733 -0.00442473 0)
(1.02926 -0.00460651 0)
(1.03122 -0.00478242 0)
(1.0332 -0.00494869 0)
(1.03521 -0.00509866 0)
(1.03722 -0.00522045 0)
(1.03922 -0.00529257 0)
(1.00001 -0.000120193 0)
(1.00014 -0.000357523 0)
(1.00043 -0.000589115 0)
(1.00083 -0.000817673 0)
(1.00136 -0.00104343 0)
(1.002 -0.00126766 0)
(1.00274 -0.00149103 0)
(1.00359 -0.00171421 0)
(1.00453 -0.0019377 0)
(1.00555 -0.0021619 0)
(1.00667 -0.00238709 0)
(1.00787 -0.00261344 0)
(1.00914 -0.00284104 0)
(1.01049 -0.00306988 0)
(1.01191 -0.00329988 0)
(1.0134 -0.00353088 0)
(1.01495 -0.00376265 0)
(1.01656 -0.00399491 0)
(1.01822 -0.00422735 0)
(1.01994 -0.00445957 0)
(1.02171 -0.00469112 0)
(1.02353 -0.00492146 0)
(1.02538 -0.00514989 0)
(1.02728 -0.00537541 0)
(1.02921 -0.00559644 0)
(1.03117 -0.00581037 0)
(1.03315 -0.00601264 0)
(1.03516 -0.00619519 0)
(1.03717 -0.00634373 0)
(1.03917 -0.00643242 0)
(1.00001 -0.000141126 0)
(1.00014 -0.000419659 0)
(1.00043 -0.000691598 0)
(1.00083 -0.000959892 0)
(1.00136 -0.00122493 0)
(1.00199 -0.00148818 0)
(1.00274 -0.00175042 0)
(1.00358 -0.00201246 0)
(1.00451 -0.00227487 0)
(1.00554 -0.00253814 0)
(1.00665 -0.00280258 0)
(1.00785 -0.00306842 0)
(1.00912 -0.00333574 0)
(1.01046 -0.00360454 0)
(1.01188 -0.00387472 0)
(1.01336 -0.00414611 0)
(1.01491 -0.00441843 0)
(1.01652 -0.00469136 0)
(1.01818 -0.00496452 0)
(1.0199 -0.00523744 0)
(1.02166 -0.00550961 0)
(1.02348 -0.00578038 0)
(1.02533 -0.00604893 0)
(1.02723 -0.00631408 0)
(1.02915 -0.00657398 0)
(1.03111 -0.00682558 0)
(1.0331 -0.00706353 0)
(1.0351 -0.0072784 0)
(1.03711 -0.00745355 0)
(1.03911 -0.00755881 0)
(1.00001 -0.000161752 0)
(1.00014 -0.000480882 0)
(1.00043 -0.000792579 0)
(1.00083 -0.00110003 0)
(1.00135 -0.00140377 0)
(1.00199 -0.00170548 0)
(1.00273 -0.00200604 0)
(1.00357 -0.00230638 0)
(1.0045 -0.00260717 0)
(1.00552 -0.00290896 0)
(1.00663 -0.00321213 0)
(1.00782 -0.00351691 0)
(1.00909 -0.00382344 0)
(1.01043 -0.00413169 0)
(1.01184 -0.00444156 0)
(1.01332 -0.00475284 0)
(1.01487 -0.00506523 0)
(1.01647 -0.00537835 0)
(1.01813 -0.00569177 0)
(1.01985 -0.00600496 0)
(1.02161 -0.00631731 0)
(1.02342 -0.00662809 0)
(1.02527 -0.00693636 0)
(1.02716 -0.00724075 0)
(1.02909 -0.00753916 0)
(1.03105 -0.00782807 0)
(1.03303 -0.00810139 0)
(1.03503 -0.00834834 0)
(1.03704 -0.00854992 0)
(1.03904 -0.00867172 0)
(1.00001 -0.000182067 0)
(1.00014 -0.000541178 0)
(1.00042 -0.000892038 0)
(1.00083 -0.00123805 0)
(1.00135 -0.00157993 0)
(1.00198 -0.00191951 0)
(1.00272 -0.00225783 0)
(1.00355 -0.00259592 0)
(1.00448 -0.00293454 0)
(1.0055 -0.00327431 0)
(1.00661 -0.00361566 0)
(1.00779 -0.00395887 0)
(1.00906 -0.00430407 0)
(1.0104 -0.00465126 0)
(1.01181 -0.00500031 0)
(1.01328 -0.00535099 0)
(1.01482 -0.00570298 0)
(1.01642 -0.00605583 0)
(1.01808 -0.00640906 0)
(1.01979 -0.00676207 0)
(1.02155 -0.00711419 0)
(1.02336 -0.00746458 0)
(1.02521 -0.00781216 0)
(1.02709 -0.00815542 0)
(1.02902 -0.00849197 0)
(1.03097 -0.00881788 0)
(1.03295 -0.00912627 0)
(1.03495 -0.00940503 0)
(1.03696 -0.00963289 0)
(1.03895 -0.00977117 0)
(1.00001 -0.000202067 0)
(1.00014 -0.00060054 0)
(1.00042 -0.000989958 0)
(1.00082 -0.00137394 0)
(1.00134 -0.00175336 0)
(1.00197 -0.00213025 0)
(1.00271 -0.00250575 0)
(1.00354 -0.00288102 0)
(1.00447 -0.00325692 0)
(1.00548 -0.00363412 0)
(1.00658 -0.00401311 0)
(1.00776 -0.00439421 0)
(1.00902 -0.00477757 0)
(1.01036 -0.00516319 0)
(1.01176 -0.00555092 0)
(1.01323 -0.00594053 0)
(1.01477 -0.00633163 0)
(1.01637 -0.00672375 0)
(1.01802 -0.00711635 0)
(1.01972 -0.00750876 0)
(1.02148 -0.00790022 0)
(1.02328 -0.00828982 0)
(1.02513 -0.00867634 0)
(1.02702 -0.0090581 0)
(1.02894 -0.00943246 0)
(1.03089 -0.00979503 0)
(1.03287 -0.0101382 0)
(1.03486 -0.0104485 0)
(1.03687 -0.0107025 0)
(1.03886 -0.0108572 0)
(1.00001 -0.00022175 0)
(1.00014 -0.000658957 0)
(1.00042 -0.00108632 0)
(1.00082 -0.00150767 0)
(1.00134 -0.00192405 0)
(1.00196 -0.00233766 0)
(1.00269 -0.00274977 0)
(1.00352 -0.00316166 0)
(1.00445 -0.00357427 0)
(1.00546 -0.00398835 0)
(1.00655 -0.00440444 0)
(1.00773 -0.0048229 0)
(1.00899 -0.00524389 0)
(1.01032 -0.00566742 0)
(1.01172 -0.00609335 0)
(1.01318 -0.00652138 0)
(1.01471 -0.00695113 0)
(1.0163 -0.00738208 0)
(1.01795 -0.0078136 0)
(1.01965 -0.00824499 0)
(1.02141 -0.0086754 0)
(1.02321 -0.00910381 0)
(1.02505 -0.0095289 0)
(1.02693 -0.00994881 0)
(1.02885 -0.0103606 0)
(1.0308 -0.0107596 0)
(1.03277 -0.0111372 0)
(1.03477 -0.0114789 0)
(1.03677 -0.0117588 0)
(1.03876 -0.0119298 0)
(1.00001 -0.000241113 0)
(1.00014 -0.000716422 0)
(1.00042 -0.00118112 0)
(1.00082 -0.00163923 0)
(1.00133 -0.00209197 0)
(1.00195 -0.00254172 0)
(1.00268 -0.00298986 0)
(1.00351 -0.00343779 0)
(1.00443 -0.00388655 0)
(1.00543 -0.00433695 0)
(1.00652 -0.0047896 0)
(1.0077 -0.00524488 0)
(1.00895 -0.00570299 0)
(1.01027 -0.00616392 0)
(1.01167 -0.00662753 0)
(1.01313 -0.00709352 0)
(1.01465 -0.00756145 0)
(1.01624 -0.00803077 0)
(1.01788 -0.00850079 0)
(1.01958 -0.00897074 0)
(1.02133 -0.0094397 0)
(1.02312 -0.00990655 0)
(1.02496 -0.0103699 0)
(1.02684 -0.0108276 0)
(1.02875 -0.0112765 0)
(1.0307 -0.0117115 0)
(1.03267 -0.0121234 0)
(1.03466 -0.0124962 0)
(1.03666 -0.0128018 0)
(1.03865 -0.012989 0)
(1.00001 -0.000260155 0)
(1.00014 -0.00077293 0)
(1.00042 -0.00127434 0)
(1.00081 -0.00176861 0)
(1.00132 -0.00225711 0)
(1.00194 -0.0027424 0)
(1.00267 -0.00322599 0)
(1.00349 -0.00370939 0)
(1.0044 -0.00419373 0)
(1.00541 -0.0046799 0)
(1.00649 -0.00516856 0)
(1.00766 -0.00566013 0)
(1.0089 -0.00615481 0)
(1.01022 -0.00665264 0)
(1.01161 -0.00715345 0)
(1.01307 -0.00765691 0)
(1.01459 -0.00816256 0)
(1.01617 -0.0086698 0)
(1.0178 -0.0091779 0)
(1.0195 -0.00968601 0)
(1.02124 -0.0101931 0)
(1.02303 -0.0106981 0)
(1.02486 -0.0111992 0)
(1.02674 -0.0116944 0)
(1.02865 -0.0121802 0)
(1.03059 -0.0126509 0)
(1.03256 -0.0130968 0)
(1.03455 -0.0135004 0)
(1.03655 -0.0138317 0)
(1.03854 -0.014035 0)
(1.00001 -0.000278873 0)
(1.00014 -0.000828475 0)
(1.00041 -0.00136598 0)
(1.00081 -0.00189578 0)
(1.00132 -0.00241944 0)
(1.00193 -0.00293968 0)
(1.00265 -0.00345813 0)
(1.00347 -0.00397643 0)
(1.00438 -0.00449578 0)
(1.00538 -0.00501716 0)
(1.00646 -0.00554128 0)
(1.00762 -0.00606859 0)
(1.00886 -0.00659934 0)
(1.01017 -0.00713355 0)
(1.01155 -0.00767106 0)
(1.013 -0.00821152 0)
(1.01451 -0.00875443 0)
(1.01609 -0.00929916 0)
(1.01772 -0.00984491 0)
(1.01941 -0.0103908 0)
(1.02115 -0.0109357 0)
(1.02293 -0.0114783 0)
(1.02476 -0.012017 0)
(1.02663 -0.0125493 0)
(1.02854 -0.0130717 0)
(1.03048 -0.0135779 0)
(1.03244 -0.0140574 0)
(1.03443 -0.0144917 0)
(1.03643 -0.0148484 0)
(1.03841 -0.0150677 0)
(1.00001 -0.000297266 0)
(1.00014 -0.000883054 0)
(1.00041 -0.00145602 0)
(1.0008 -0.00202075 0)
(1.00131 -0.00257896 0)
(1.00192 -0.00313355 0)
(1.00264 -0.00368627 0)
(1.00345 -0.00423888 0)
(1.00435 -0.00479268 0)
(1.00534 -0.00534871 0)
(1.00642 -0.00590774 0)
(1.00758 -0.00647026 0)
(1.00881 -0.00703655 0)
(1.01011 -0.00760663 0)
(1.01149 -0.00818034 0)
(1.01293 -0.00875732 0)
(1.01444 -0.00933705 0)
(1.01601 -0.00991882 0)
(1.01763 -0.0105018 0)
(1.01931 -0.011085 0)
(1.02105 -0.0116674 0)
(1.02283 -0.0122474 0)
(1.02465 -0.0128232 0)
(1.02652 -0.0133924 0)
(1.02842 -0.0139509 0)
(1.03035 -0.0144924 0)
(1.03232 -0.0150054 0)
(1.0343 -0.0154701 0)
(1.0363 -0.0158521 0)
(1.03828 -0.0160873 0)
(1.00001 -0.000315333 0)
(1.00014 -0.000936665 0)
(1.00041 -0.00154447 0)
(1.0008 -0.0021435 0)
(1.0013 -0.00273566 0)
(1.00191 -0.003324 0)
(1.00262 -0.00391041 0)
(1.00343 -0.00449675 0)
(1.00433 -0.00508441 0)
(1.00531 -0.00567453 0)
(1.00638 -0.00626791 0)
(1.00753 -0.00686511 0)
(1.00876 -0.00746641 0)
(1.01005 -0.00807186 0)
(1.01142 -0.00868128 0)
(1.01286 -0.00929431 0)
(1.01436 -0.00991039 0)
(1.01592 -0.0105288 0)
(1.01754 -0.0111486 0)
(1.01921 -0.0117688 0)
(1.02094 -0.0123882 0)
(1.02272 -0.0130052 0)
(1.02453 -0.0136179 0)
(1.0264 -0.0142236 0)
(1.02829 -0.0148181 0)
(1.03022 -0.0153945 0)
(1.03218 -0.0159407 0)
(1.03416 -0.0164356 0)
(1.03616 -0.0168427 0)
(1.03813 -0.0170937 0)
(1.00001 -0.000333075 0)
(1.00013 -0.000989305 0)
(1.00041 -0.00163132 0)
(1.00079 -0.00226403 0)
(1.00129 -0.00288953 0)
(1.0019 -0.00351102 0)
(1.0026 -0.00413052 0)
(1.00341 -0.00475 0)
(1.0043 -0.00537096 0)
(1.00528 -0.0059946 0)
(1.00634 -0.00662179 0)
(1.00748 -0.00725313 0)
(1.0087 -0.00788891 0)
(1.00999 -0.00852922 0)
(1.01135 -0.00917387 0)
(1.01278 -0.00982247 0)
(1.01428 -0.0104745 0)
(1.01583 -0.011129 0)
(1.01744 -0.0117853 0)
(1.01911 -0.0124421 0)
(1.02083 -0.0130982 0)
(1.0226 -0.0137518 0)
(1.02441 -0.0144011 0)
(1.02627 -0.0150431 0)
(1.02816 -0.0156732 0)
(1.03009 -0.0162842 0)
(1.03204 -0.0168635 0)
(1.03402 -0.0173884 0)
(1.03601 -0.0178204 0)
(1.03798 -0.0180872 0)
(1.00001 -0.00035049 0)
(1.00013 -0.00104097 0)
(1.0004 -0.00171657 0)
(1.00079 -0.00238234 0)
(1.00128 -0.00304056 0)
(1.00188 -0.00369461 0)
(1.00259 -0.0043466 0)
(1.00338 -0.00499865 0)
(1.00427 -0.00565233 0)
(1.00524 -0.00630892 0)
(1.0063 -0.00696937 0)
(1.00743 -0.0076343 0)
(1.00864 -0.00830405 0)
(1.00993 -0.0089787 0)
(1.01128 -0.00965809 0)
(1.0127 -0.0103418 0)
(1.01419 -0.0110292 0)
(1.01573 -0.0117196 0)
(1.01734 -0.0124119 0)
(1.019 -0.0131049 0)
(1.02071 -0.0137973 0)
(1.02247 -0.0144873 0)
(1.02428 -0.0151729 0)
(1.02613 -0.0158508 0)
(1.02802 -0.0165163 0)
(1.02994 -0.0171618 0)
(1.0319 -0.0177737 0)
(1.03387 -0.0183285 0)
(1.03586 -0.0187853 0)
(1.03782 -0.0190677 0)
(1.00001 -0.00036758 0)
(1.00013 -0.00109167 0)
(1.0004 -0.00180021 0)
(1.00078 -0.00249843 0)
(1.00127 -0.00318876 0)
(1.00187 -0.00387475 0)
(1.00257 -0.00455865 0)
(1.00336 -0.00524267 0)
(1.00424 -0.0059285 0)
(1.0052 -0.00661749 0)
(1.00625 -0.00731063 0)
(1.00738 -0.00800862 0)
(1.00858 -0.00871181 0)
(1.00986 -0.0094203 0)
(1.0112 -0.0101339 0)
(1.01262 -0.0108523 0)
(1.01409 -0.0115747 0)
(1.01563 -0.0123004 0)
(1.01723 -0.0130284 0)
(1.01888 -0.0137572 0)
(1.02059 -0.0144856 0)
(1.02235 -0.0152117 0)
(1.02415 -0.0159332 0)
(1.02599 -0.0166468 0)
(1.02788 -0.0173475 0)
(1.02979 -0.0180271 0)
(1.03174 -0.0186716 0)
(1.03371 -0.0192559 0)
(1.03569 -0.0197375 0)
(1.03766 -0.0200354 0)
(1.00001 -0.000384344 0)
(1.00013 -0.0011414 0)
(1.0004 -0.00188226 0)
(1.00077 -0.0026123 0)
(1.00126 -0.00333413 0)
(1.00186 -0.00405147 0)
(1.00255 -0.00476667 0)
(1.00333 -0.00548208 0)
(1.00421 -0.00619948 0)
(1.00516 -0.0069203 0)
(1.00621 -0.00764559 0)
(1.00732 -0.00837609 0)
(1.00852 -0.0091122 0)
(1.00979 -0.00985403 0)
(1.01112 -0.0106014 0)
(1.01253 -0.0113539 0)
(1.014 -0.012111 0)
(1.01553 -0.0128716 0)
(1.01712 -0.0136348 0)
(1.01876 -0.0143991 0)
(1.02046 -0.0151632 0)
(1.02221 -0.015925 0)
(1.02401 -0.0166821 0)
(1.02584 -0.0174311 0)
(1.02772 -0.0181667 0)
(1.02964 -0.0188803 0)
(1.03158 -0.0195571 0)
(1.03354 -0.0201708 0)
(1.03553 -0.0206769 0)
(1.03748 -0.0209903 0)
(1.00001 -0.000400783 0)
(1.00013 -0.00119016 0)
(1.00039 -0.00196271 0)
(1.00077 -0.00272395 0)
(1.00125 -0.00347668 0)
(1.00184 -0.00422475 0)
(1.00253 -0.00497066 0)
(1.0033 -0.00571688 0)
(1.00417 -0.00646527 0)
(1.00512 -0.00721735 0)
(1.00616 -0.00797424 0)
(1.00727 -0.00873672 0)
(1.00845 -0.00950522 0)
(1.00971 -0.0102799 0)
(1.01104 -0.0110605 0)
(1.01244 -0.0118468 0)
(1.0139 -0.0126379 0)
(1.01542 -0.0134331 0)
(1.017 -0.0142311 0)
(1.01864 -0.0150306 0)
(1.02033 -0.01583 0)
(1.02207 -0.0166272 0)
(1.02386 -0.0174197 0)
(1.02569 -0.0182038 0)
(1.02756 -0.0189741 0)
(1.02947 -0.0197214 0)
(1.03141 -0.0204303 0)
(1.03337 -0.0210733 0)
(1.03535 -0.0216038 0)
(1.0373 -0.0219325 0)
(1.00001 -0.000416898 0)
(1.00013 -0.00123796 0)
(1.00039 -0.00204157 0)
(1.00076 -0.00283339 0)
(1.00124 -0.0036164 0)
(1.00183 -0.0043946 0)
(1.00251 -0.00517063 0)
(1.00328 -0.00594707 0)
(1.00414 -0.00672588 0)
(1.00508 -0.00750866 0)
(1.00611 -0.00829659 0)
(1.00721 -0.0090905 0)
(1.00839 -0.00989088 0)
(1.00964 -0.0106979 0)
(1.01096 -0.0115113 0)
(1.01234 -0.0123308 0)
(1.01379 -0.0131556 0)
(1.01531 -0.0139849 0)
(1.01688 -0.0148174 0)
(1.01851 -0.0156517 0)
(1.02019 -0.016486 0)
(1.02192 -0.0173184 0)
(1.02371 -0.018146 0)
(1.02553 -0.018965 0)
(1.0274 -0.0197697 0)
(1.0293 -0.0205505 0)
(1.03123 -0.0212913 0)
(1.03319 -0.0219633 0)
(1.03517 -0.0225182 0)
(1.03711 -0.0228621 0)
(1.00001 -0.000432692 0)
(1.00013 -0.0012848 0)
(1.00039 -0.00211885 0)
(1.00076 -0.00294063 0)
(1.00123 -0.0037533 0)
(1.00181 -0.00456103 0)
(1.00248 -0.00536659 0)
(1.00325 -0.00617267 0)
(1.0041 -0.00698132 0)
(1.00504 -0.00779423 0)
(1.00605 -0.00861265 0)
(1.00715 -0.00943747 0)
(1.00832 -0.0102692 0)
(1.00956 -0.011108 0)
(1.01087 -0.0119537 0)
(1.01224 -0.012806 0)
(1.01369 -0.0136641 0)
(1.01519 -0.0145271 0)
(1.01675 -0.0153936 0)
(1.01837 -0.0162624 0)
(1.02005 -0.0171314 0)
(1.02177 -0.0179986 0)
(1.02355 -0.0188611 0)
(1.02537 -0.0197148 0)
(1.02723 -0.0205536 0)
(1.02912 -0.0213677 0)
(1.03105 -0.0221403 0)
(1.033 -0.0228411 0)
(1.03497 -0.0234201 0)
(1.03691 -0.0237792 0)
(1.00001 -0.000448164 0)
(1.00013 -0.00133068 0)
(1.00038 -0.00219454 0)
(1.00075 -0.00304566 0)
(1.00122 -0.0038874 0)
(1.00179 -0.00472406 0)
(1.00246 -0.00555855 0)
(1.00322 -0.00639368 0)
(1.00406 -0.0072316 0)
(1.00499 -0.00807408 0)
(1.006 -0.00892244 0)
(1.00709 -0.00977762 0)
(1.00824 -0.0106402 0)
(1.00948 -0.0115103 0)
(1.01078 -0.0123879 0)
(1.01214 -0.0132725 0)
(1.01357 -0.0141634 0)
(1.01507 -0.0150596 0)
(1.01662 -0.0159599 0)
(1.01823 -0.0168627 0)
(1.0199 -0.0177661 0)
(1.02162 -0.0186679 0)
(1.02338 -0.0195649 0)
(1.02519 -0.020453 0)
(1.02705 -0.0213259 0)
(1.02894 -0.0221731 0)
(1.03086 -0.0229772 0)
(1.03281 -0.0237067 0)
(1.03478 -0.0243098 0)
(1.03671 -0.0246839 0)
(1.00001 -0.000463318 0)
(1.00013 -0.00137561 0)
(1.00038 -0.00226866 0)
(1.00074 -0.00314851 0)
(1.00121 -0.0040187 0)
(1.00178 -0.00488369 0)
(1.00244 -0.00574652 0)
(1.00319 -0.00661012 0)
(1.00403 -0.00747673 0)
(1.00495 -0.00834822 0)
(1.00594 -0.00922598 0)
(1.00702 -0.010111 0)
(1.00817 -0.0110038 0)
(1.00939 -0.0119048 0)
(1.01068 -0.0128137 0)
(1.01204 -0.0137302 0)
(1.01346 -0.0146535 0)
(1.01494 -0.0155826 0)
(1.01649 -0.0165162 0)
(1.01809 -0.0174527 0)
(1.01974 -0.0183902 0)
(1.02145 -0.0193262 0)
(1.02321 -0.0202576 0)
(1.02502 -0.02118 0)
(1.02686 -0.0220866 0)
(1.02875 -0.0229667 0)
(1.03067 -0.0238022 0)
(1.03261 -0.0245602 0)
(1.03457 -0.0251872 0)
(1.0365 -0.0255762 0)
(1.00001 -0.000478155 0)
(1.00013 -0.00141959 0)
(1.00038 -0.00234122 0)
(1.00073 -0.00324918 0)
(1.0012 -0.00414721 0)
(1.00176 -0.00503994 0)
(1.00241 -0.00593051 0)
(1.00316 -0.006822 0)
(1.00399 -0.00771674 0)
(1.0049 -0.00861668 0)
(1.00589 -0.00952328 0)
(1.00695 -0.0104376 0)
(1.00809 -0.0113602 0)
(1.0093 -0.0122915 0)
(1.01058 -0.0132312 0)
(1.01193 -0.0141791 0)
(1.01334 -0.0151344 0)
(1.01481 -0.016096 0)
(1.01635 -0.0170626 0)
(1.01794 -0.0180325 0)
(1.01958 -0.0190037 0)
(1.02128 -0.0199738 0)
(1.02303 -0.0209393 0)
(1.02483 -0.0218956 0)
(1.02667 -0.0228359 0)
(1.02855 -0.0237487 0)
(1.03046 -0.0246153 0)
(1.0324 -0.0254017 0)
(1.03436 -0.0260525 0)
(1.03628 -0.0264564 0)
(1.00001 -0.000492678 0)
(1.00012 -0.00146264 0)
(1.00037 -0.00241222 0)
(1.00073 -0.00334768 0)
(1.00119 -0.00427296 0)
(1.00174 -0.00519282 0)
(1.00239 -0.00611055 0)
(1.00313 -0.00702935 0)
(1.00395 -0.00795164 0)
(1.00485 -0.00887947 0)
(1.00583 -0.00981436 0)
(1.00688 -0.0107574 0)
(1.00801 -0.0117093 0)
(1.00921 -0.0126704 0)
(1.01048 -0.0136405 0)
(1.01182 -0.0146194 0)
(1.01322 -0.0156061 0)
(1.01468 -0.0165998 0)
(1.0162 -0.017599 0)
(1.01778 -0.018602 0)
(1.01942 -0.0196067 0)
(1.02111 -0.0206105 0)
(1.02285 -0.0216099 0)
(1.02464 -0.0226 0)
(1.02647 -0.0235737 0)
(1.02835 -0.024519 0)
(1.03025 -0.0254168 0)
(1.03218 -0.0262313 0)
(1.03414 -0.0269058 0)
(1.03606 -0.0273245 0)
(1.00001 -0.000506889 0)
(1.00012 -0.00150475 0)
(1.00037 -0.00248167 0)
(1.00072 -0.00344403 0)
(1.00117 -0.00439595 0)
(1.00172 -0.00534235 0)
(1.00236 -0.00628666 0)
(1.00309 -0.00723218 0)
(1.00391 -0.00818147 0)
(1.0048 -0.00913663 0)
(1.00577 -0.0100993 0)
(1.00681 -0.0110706 0)
(1.00793 -0.0120512 0)
(1.00912 -0.0130416 0)
(1.01038 -0.0140416 0)
(1.0117 -0.0150509 0)
(1.01309 -0.0160688 0)
(1.01454 -0.0170942 0)
(1.01605 -0.0181256 0)
(1.01762 -0.0191613 0)
(1.01925 -0.0201992 0)
(1.02093 -0.0212365 0)
(1.02267 -0.0222695 0)
(1.02445 -0.0232932 0)
(1.02627 -0.0243002 0)
(1.02814 -0.025278 0)
(1.03004 -0.0262066 0)
(1.03196 -0.0270491 0)
(1.03392 -0.0277473 0)
(1.03582 -0.0281805 0)
(1.00001 -0.000520791 0)
(1.00012 -0.00154593 0)
(1.00037 -0.00254959 0)
(1.00071 -0.00353823 0)
(1.00116 -0.0045162 0)
(1.0017 -0.00548855 0)
(1.00234 -0.00645885 0)
(1.00306 -0.00743053 0)
(1.00386 -0.00840623 0)
(1.00475 -0.00938817 0)
(1.00571 -0.010378 0)
(1.00674 -0.011377 0)
(1.00785 -0.0123859 0)
(1.00903 -0.0134051 0)
(1.01027 -0.0144345 0)
(1.01158 -0.0154739 0)
(1.01296 -0.0165224 0)
(1.0144 -0.017579 0)
(1.0159 -0.0186423 0)
(1.01746 -0.0197105 0)
(1.01908 -0.0207812 0)
(1.02075 -0.0218517 0)
(1.02247 -0.0229182 0)
(1.02424 -0.0239754 0)
(1.02606 -0.0250154 0)
(1.02792 -0.0260255 0)
(1.02982 -0.0269849 0)
(1.03173 -0.0278553 0)
(1.03369 -0.0285769 0)
(1.03558 -0.0290247 0)
(1.00001 -0.000534388 0)
(1.00012 -0.00158619 0)
(1.00036 -0.00261599 0)
(1.0007 -0.00363031 0)
(1.00115 -0.00463373 0)
(1.00169 -0.00563143 0)
(1.00231 -0.00662714 0)
(1.00303 -0.00762441 0)
(1.00382 -0.00862597 0)
(1.00469 -0.00963414 0)
(1.00564 -0.0106506 0)
(1.00667 -0.0116768 0)
(1.00776 -0.0127134 0)
(1.00893 -0.0137609 0)
(1.01016 -0.0148193 0)
(1.01146 -0.0158882 0)
(1.01283 -0.016967 0)
(1.01426 -0.0180545 0)
(1.01575 -0.0191493 0)
(1.01729 -0.0202495 0)
(1.0189 -0.0213528 0)
(1.02056 -0.0224563 0)
(1.02227 -0.0235561 0)
(1.02404 -0.0246465 0)
(1.02585 -0.0257196 0)
(1.0277 -0.0267618 0)
(1.02959 -0.0277518 0)
(1.0315 -0.0286499 0)
(1.03345 -0.0293949 0)
(1.03534 -0.0298572 0)
(1.00001 -0.000547682 0)
(1.00012 -0.00162555 0)
(1.00036 -0.00268087 0)
(1.0007 -0.00372027 0)
(1.00113 -0.00474855 0)
(1.00167 -0.00577103 0)
(1.00229 -0.00679157 0)
(1.00299 -0.00781385 0)
(1.00378 -0.00884071 0)
(1.00464 -0.00987455 0)
(1.00558 -0.0109172 0)
(1.00659 -0.01197 0)
(1.00768 -0.0130338 0)
(1.00883 -0.0141091 0)
(1.01005 -0.015196 0)
(1.01134 -0.016294 0)
(1.01269 -0.0174026 0)
(1.01411 -0.0185206 0)
(1.01559 -0.0196465 0)
(1.01712 -0.0207784 0)
(1.01872 -0.0219141 0)
(1.02037 -0.0230503 0)
(1.02207 -0.0241831 0)
(1.02383 -0.0253067 0)
(1.02563 -0.0264126 0)
(1.02747 -0.0274869 0)
(1.02936 -0.0285075 0)
(1.03126 -0.0294332 0)
(1.03321 -0.0302015 0)
(1.03509 -0.030678 0)
(1.00001 -0.000560677 0)
(1.00012 -0.001664 0)
(1.00035 -0.00274425 0)
(1.00069 -0.00380814 0)
(1.00112 -0.00486068 0)
(1.00165 -0.00590735 0)
(1.00226 -0.00695215 0)
(1.00295 -0.00799888 0)
(1.00373 -0.00905049 0)
(1.00458 -0.0101095 0)
(1.00551 -0.0111777 0)
(1.00652 -0.0122566 0)
(1.00759 -0.0133471 0)
(1.00873 -0.0144497 0)
(1.00994 -0.0155646 0)
(1.01121 -0.0166913 0)
(1.01255 -0.0178292 0)
(1.01396 -0.0189773 0)
(1.01542 -0.0201339 0)
(1.01695 -0.0212973 0)
(1.01853 -0.022465 0)
(1.02017 -0.0236338 0)
(1.02186 -0.0247994 0)
(1.02361 -0.025956 0)
(1.0254 -0.0270947 0)
(1.02724 -0.0282009 0)
(1.02912 -0.029252 0)
(1.03102 -0.0302052 0)
(1.03296 -0.0309966 0)
(1.03483 -0.0314873 0)
(1.00001 -0.000573377 0)
(1.00012 -0.00170155 0)
(1.00035 -0.00280615 0)
(1.00068 -0.00389392 0)
(1.00111 -0.00497015 0)
(1.00163 -0.00604042 0)
(1.00223 -0.00710891 0)
(1.00292 -0.00817953 0)
(1.00368 -0.00925533 0)
(1.00453 -0.0103389 0)
(1.00545 -0.0114322 0)
(1.00644 -0.0125367 0)
(1.0075 -0.0136534 0)
(1.00863 -0.0147828 0)
(1.00982 -0.0159252 0)
(1.01108 -0.0170801 0)
(1.01241 -0.018247 0)
(1.0138 -0.0194247 0)
(1.01525 -0.0206118 0)
(1.01677 -0.0218062 0)
(1.01834 -0.0230056 0)
(1.01996 -0.0242067 0)
(1.02165 -0.0254051 0)
(1.02338 -0.0265945 0)
(1.02517 -0.0277659 0)
(1.027 -0.028904 0)
(1.02887 -0.0299855 0)
(1.03076 -0.0309661 0)
(1.0327 -0.0317806 0)
(1.03457 -0.0322853 0)
(1.00001 -0.000585785 0)
(1.00011 -0.00173822 0)
(1.00035 -0.00286657 0)
(1.00067 -0.00397764 0)
(1.00109 -0.00507696 0)
(1.00161 -0.00617027 0)
(1.0022 -0.00726188 0)
(1.00288 -0.00835583 0)
(1.00364 -0.00945527 0)
(1.00447 -0.0105629 0)
(1.00538 -0.0116807 0)
(1.00636 -0.0128103 0)
(1.0074 -0.0139526 0)
(1.00852 -0.0151084 0)
(1.0097 -0.0162778 0)
(1.01095 -0.0174605 0)
(1.01227 -0.0186559 0)
(1.01364 -0.0198628 0)
(1.01508 -0.0210799 0)
(1.01658 -0.0223052 0)
(1.01814 -0.0235361 0)
(1.01976 -0.0247692 0)
(1.02143 -0.0260001 0)
(1.02315 -0.0272223 0)
(1.02493 -0.0284263 0)
(1.02675 -0.0295963 0)
(1.02862 -0.0307082 0)
(1.03051 -0.0317161 0)
(1.03244 -0.0325535 0)
(1.0343 -0.033072 0)
(1.00001 -0.000597906 0)
(1.00011 -0.00177402 0)
(1.00034 -0.00292552 0)
(1.00066 -0.00405931 0)
(1.00108 -0.00518115 0)
(1.00158 -0.00629692 0)
(1.00217 -0.00741109 0)
(1.00284 -0.00852781 0)
(1.00359 -0.00965035 0)
(1.00441 -0.0107815 0)
(1.00531 -0.0119233 0)
(1.00627 -0.0130774 0)
(1.00731 -0.014245 0)
(1.00841 -0.0154266 0)
(1.00958 -0.0166225 0)
(1.01082 -0.0178325 0)
(1.01212 -0.019056 0)
(1.01348 -0.0202918 0)
(1.01491 -0.0215386 0)
(1.01639 -0.0227942 0)
(1.01794 -0.0240563 0)
(1.01954 -0.0253213 0)
(1.0212 -0.0265846 0)
(1.02292 -0.0278394 0)
(1.02469 -0.029076 0)
(1.0265 -0.0302779 0)
(1.02836 -0.0314201 0)
(1.03024 -0.0324553 0)
(1.03218 -0.0333156 0)
(1.03402 -0.0338478 0)
(1.00001 -0.000609744 0)
(1.00011 -0.00180894 0)
(1.00034 -0.00298303 0)
(1.00065 -0.00413894 0)
(1.00107 -0.00528273 0)
(1.00156 -0.00642039 0)
(1.00214 -0.00755656 0)
(1.0028 -0.00869551 0)
(1.00354 -0.00984062 0)
(1.00435 -0.0109947 0)
(1.00524 -0.01216 0)
(1.00619 -0.0133382 0)
(1.00721 -0.0145304 0)
(1.0083 -0.0157374 0)
(1.00946 -0.0169594 0)
(1.01068 -0.0181962 0)
(1.01197 -0.0194473 0)
(1.01332 -0.0207116 0)
(1.01473 -0.0219876 0)
(1.0162 -0.0232735 0)
(1.01773 -0.0245664 0)
(1.01933 -0.025863 0)
(1.02098 -0.0271586 0)
(1.02268 -0.028446 0)
(1.02444 -0.0297151 0)
(1.02625 -0.0309489 0)
(1.0281 -0.0321216 0)
(1.02997 -0.0331839 0)
(1.0319 -0.034067 0)
(1.03374 -0.0346127 0)
(1.00001 -0.000621302 0)
(1.00011 -0.001843 0)
(1.00033 -0.0030391 0)
(1.00064 -0.00421655 0)
(1.00105 -0.00538171 0)
(1.00154 -0.00654071 0)
(1.00211 -0.00769834 0)
(1.00277 -0.00885897 0)
(1.00349 -0.0100261 0)
(1.00429 -0.0112026 0)
(1.00516 -0.0123909 0)
(1.0061 -0.0135926 0)
(1.00711 -0.014809 0)
(1.00819 -0.0160408 0)
(1.00933 -0.0172885 0)
(1.01054 -0.0185517 0)
(1.01181 -0.01983 0)
(1.01315 -0.0211223 0)
(1.01454 -0.0224273 0)
(1.016 -0.0237428 0)
(1.01752 -0.0250664 0)
(1.0191 -0.0263945 0)
(1.02074 -0.0277221 0)
(1.02244 -0.029042 0)
(1.02418 -0.0303437 0)
(1.02598 -0.0316094 0)
(1.02783 -0.0328126 0)
(1.0297 -0.0339022 0)
(1.03163 -0.0348079 0)
(1.03345 -0.035367 0)
(1.00001 -0.000632587 0)
(1.00011 -0.00187622 0)
(1.00033 -0.00309374 0)
(1.00064 -0.00429216 0)
(1.00104 -0.00547814 0)
(1.00152 -0.0066579 0)
(1.00208 -0.00783644 0)
(1.00273 -0.00901822 0)
(1.00344 -0.0102068 0)
(1.00423 -0.0114053 0)
(1.00509 -0.012616 0)
(1.00602 -0.0138407 0)
(1.00701 -0.0150808 0)
(1.00808 -0.016337 0)
(1.00921 -0.0176098 0)
(1.0104 -0.0188989 0)
(1.01166 -0.020204 0)
(1.01298 -0.021524 0)
(1.01436 -0.0228574 0)
(1.0158 -0.0242025 0)
(1.01731 -0.0255564 0)
(1.01888 -0.0269156 0)
(1.0205 -0.0282752 0)
(1.02219 -0.0296276 0)
(1.02392 -0.0309619 0)
(1.02571 -0.0322596 0)
(1.02755 -0.0334935 0)
(1.02942 -0.0346103 0)
(1.03134 -0.0355386 0)
(1.03316 -0.0361108 0)
(1.00001 -0.000643601 0)
(1.00011 -0.00190858 0)
(1.00032 -0.00314696 0)
(1.00063 -0.00436578 0)
(1.00102 -0.00557201 0)
(1.0015 -0.006772 0)
(1.00205 -0.0079709 0)
(1.00268 -0.0091733 0)
(1.00339 -0.0103829 0)
(1.00417 -0.0116028 0)
(1.00501 -0.0128354 0)
(1.00593 -0.0140827 0)
(1.00691 -0.0153459 0)
(1.00796 -0.016626 0)
(1.00908 -0.0179234 0)
(1.01025 -0.019238 0)
(1.0115 -0.0205694 0)
(1.0128 -0.0219166 0)
(1.01417 -0.0232783 0)
(1.0156 -0.0246524 0)
(1.01709 -0.0260364 0)
(1.01864 -0.0274266 0)
(1.02026 -0.0288179 0)
(1.02193 -0.0302027 0)
(1.02366 -0.0315697 0)
(1.02544 -0.0328997 0)
(1.02727 -0.0341643 0)
(1.02913 -0.0353085 0)
(1.03106 -0.0362593 0)
(1.03286 -0.0368445 0)
(1.00001 -0.000654349 0)
(1.00011 -0.00194012 0)
(1.00032 -0.00319879 0)
(1.00062 -0.00443743 0)
(1.00101 -0.00566336 0)
(1.00147 -0.00688303 0)
(1.00202 -0.00810176 0)
(1.00264 -0.00932424 0)
(1.00334 -0.0105543 0)
(1.0041 -0.0117951 0)
(1.00494 -0.0130491 0)
(1.00584 -0.0143184 0)
(1.00681 -0.0156043 0)
(1.04137 -0.000594745 1.05916e-21)
(1.04353 -0.000590446 9.87706e-22)
(1.04575 -0.000586292 6.4002e-22)
(1.04804 -0.000581949 2.12139e-21)
(1.05039 -0.000577263 -2.48928e-22)
(1.0528 -0.000572193 -1.0837e-21)
(1.05529 -0.000566723 -2.3474e-21)
(1.05783 -0.000560858 6.10884e-22)
(1.06044 -0.000554614 -1.64333e-21)
(1.06312 -0.000548015 3.55314e-22)
(1.06586 -0.000541094 -4.28595e-22)
(1.06867 -0.000533885 4.86854e-22)
(1.07154 -0.000526432 9.37743e-22)
(1.07448 -0.000518779 -3.22589e-22)
(1.07748 -0.000510974 -1.44015e-21)
(1.08054 -0.00050307 2.17358e-21)
(1.08366 -0.000495118 -7.59867e-22)
(1.08685 -0.000487171 -1.37452e-21)
(1.0901 -0.000479282 5.59031e-23)
(1.09341 -0.000471499 1.03837e-21)
(1.09678 -0.000463869 1.71849e-21)
(1.10021 -0.000456432 4.99788e-22)
(1.1037 -0.000449223 -8.22123e-23)
(1.10724 -0.000442265 -4.54098e-22)
(1.11084 -0.000435578 6.06342e-22)
(1.04136 -0.00178374 6.94019e-22)
(1.04352 -0.00177389 -2.45816e-21)
(1.04574 -0.00176388 -2.90557e-21)
(1.04802 -0.00175305 -2.12556e-22)