/*--------------------------------*- C++ -*----------------------------------*\
  =========                 |
  \\      /  F ield         | OpenFOAM: The Open Source CFD Toolbox
   \\    /   O peration     | Website:  https://openfoam.org
    \\  /    A nd           | Version:  7
     \\/     M anipulation  |
\*---------------------------------------------------------------------------*/
FoamFile
{
    version     2.0;
    format      ascii;
    class       volScalarField;
    location    "15";
    object      p;
}
// * * * * * * * * * * * * * * * * * * * * * * * * * * * * * * * * * * * * * //

dimensions      [0 2 -2 0 0 0 0];

internalField   nonuniform List<scalar> 
21000
(
-0.409738
-0.409338
-0.399445
-0.385356
-0.369016
-0.349795
-0.330053
-0.309037
-0.288138
-0.267008
-0.246479
-0.22622
-0.207154
-0.188237
-0.410015
-0.409504
-0.399599
-0.385465
-0.369114
-0.349874
-0.330125
-0.3091
-0.288198
-0.267064
-0.246533
-0.226271
-0.207205
-0.188286
-0.410568
-0.409835
-0.399908
-0.385682
-0.369311
-0.350031
-0.330269
-0.309227
-0.288317
-0.267176
-0.246641
-0.226374
-0.207307
-0.188382
-0.411397
-0.410331
-0.400371
-0.386008
-0.369605
-0.350267
-0.330484
-0.309417
-0.288495
-0.267342
-0.246801
-0.226528
-0.20746
-0.188525
-0.412498
-0.410991
-0.400986
-0.38644
-0.369996
-0.350581
-0.33077
-0.309669
-0.288732
-0.267563
-0.247013
-0.226731
-0.207662
-0.188715
-0.41387
-0.411812
-0.401752
-0.386978
-0.370482
-0.35097
-0.331126
-0.309982
-0.289025
-0.267836
-0.247277
-0.226984
-0.207912
-0.188951
-0.415508
-0.412794
-0.402667
-0.387621
-0.371062
-0.351435
-0.331549
-0.310355
-0.289374
-0.268162
-0.24759
-0.227284
-0.208209
-0.189231
-0.41741
-0.413933
-0.403728
-0.388366
-0.371734
-0.351972
-0.332039
-0.310786
-0.289777
-0.268538
-0.247951
-0.227629
-0.208551
-0.189554
-0.41957
-0.415227
-0.404933
-0.389211
-0.372496
-0.352581
-0.332593
-0.311273
-0.290232
-0.268962
-0.248358
-0.228019
-0.208936
-0.189917
-0.421983
-0.416672
-0.406279
-0.390154
-0.373346
-0.353259
-0.33321
-0.311814
-0.290737
-0.269432
-0.248808
-0.22845
-0.209361
-0.190319
-0.1739
-0.424644
-0.418266
-0.407762
-0.391193
-0.374281
-0.354005
-0.333887
-0.312407
-0.291291
-0.269946
-0.249301
-0.22892
-0.209824
-0.190757
-0.174363
-0.427546
-0.420004
-0.409379
-0.392325
-0.375299
-0.354815
-0.334621
-0.31305
-0.291889
-0.270501
-0.249832
-0.229427
-0.210323
-0.191229
-0.174858
-0.430682
-0.421883
-0.411127
-0.393546
-0.376397
-0.355687
-0.335411
-0.31374
-0.292531
-0.271095
-0.250399
-0.229968
-0.210852
-0.191731
-0.175382
-0.43405
-0.423896
-0.413
-0.394854
-0.377571
-0.356618
-0.336254
-0.314474
-0.293213
-0.271726
-0.250999
-0.230539
-0.21141
-0.19226
-0.175929
-0.437643
-0.426034
-0.414994
-0.396244
-0.378819
-0.357606
-0.337146
-0.31525
-0.293932
-0.272389
-0.251629
-0.231138
-0.211993
-0.192813
-0.176496
-0.441428
-0.428315
-0.417105
-0.397715
-0.380137
-0.358647
-0.338085
-0.316065
-0.294685
-0.273082
-0.252286
-0.231761
-0.212596
-0.193385
-0.177078
-0.445421
-0.430714
-0.419328
-0.399262
-0.381521
-0.359739
-0.339068
-0.316916
-0.295469
-0.273801
-0.252965
-0.232403
-0.213216
-0.193973
-0.177668
-0.449611
-0.433226
-0.421658
-0.400882
-0.382969
-0.360878
-0.340092
-0.317799
-0.296282
-0.274544
-0.253664
-0.233061
-0.213847
-0.194571
-0.178262
-0.453987
-0.435849
-0.424089
-0.40257
-0.384476
-0.362062
-0.341153
-0.318712
-0.297118
-0.275306
-0.254378
-0.23373
-0.214485
-0.195174
-0.178855
-0.458537
-0.438577
-0.426617
-0.404322
-0.386039
-0.363286
-0.342248
-0.319651
-0.297976
-0.276084
-0.255103
-0.234407
-0.215126
-0.195778
-0.179439
-0.463252
-0.441405
-0.429236
-0.406136
-0.387655
-0.364548
-0.343375
-0.320614
-0.298852
-0.276874
-0.255834
-0.235086
-0.215762
-0.196377
-0.180008
-0.468123
-0.444326
-0.43194
-0.408006
-0.389319
-0.365845
-0.344529
-0.321596
-0.299742
-0.277672
-0.256568
-0.235763
-0.21639
-0.196964
-0.180557
-0.473139
-0.447335
-0.434724
-0.40993
-0.391028
-0.367174
-0.345708
-0.322595
-0.300642
-0.278474
-0.2573
-0.236431
-0.217003
-0.197535
-0.181078
-0.161947
-0.47829
-0.450425
-0.437582
-0.411902
-0.392777
-0.36853
-0.346909
-0.323607
-0.301548
-0.279276
-0.258025
-0.237087
-0.217596
-0.198081
-0.181564
-0.162421
-0.483565
-0.453589
-0.440508
-0.413918
-0.394564
-0.369912
-0.348127
-0.324629
-0.302457
-0.280072
-0.258737
-0.237723
-0.218162
-0.198597
-0.182009
-0.162863
-0.488954
-0.456822
-0.443496
-0.415975
-0.396385
-0.371315
-0.34936
-0.325656
-0.303365
-0.28086
-0.259432
-0.238335
-0.218694
-0.199075
-0.182406
-0.163265
-0.494444
-0.460117
-0.44654
-0.418069
-0.398235
-0.372736
-0.350604
-0.326686
-0.304267
-0.281633
-0.260104
-0.238915
-0.219186
-0.199509
-0.182748
-0.16362
-0.500026
-0.463466
-0.449635
-0.420195
-0.40011
-0.374172
-0.351856
-0.327714
-0.305159
-0.282387
-0.260747
-0.239459
-0.219631
-0.199891
-0.183028
-0.163921
-0.505689
-0.466864
-0.452773
-0.422349
-0.402008
-0.37562
-0.353111
-0.328737
-0.306036
-0.283117
-0.261356
-0.239958
-0.220023
-0.200214
-0.183238
-0.164159
-0.51142
-0.470304
-0.455949
-0.424526
-0.403923
-0.377075
-0.354366
-0.32975
-0.306894
-0.283817
-0.261924
-0.240408
-0.220354
-0.200471
-0.183373
-0.164329
-0.517209
-0.473778
-0.459157
-0.426723
-0.405852
-0.378535
-0.355618
-0.33075
-0.307728
-0.284481
-0.262446
-0.240799
-0.220618
-0.200654
-0.183426
-0.164422
-0.152612
-0.523044
-0.477279
-0.462391
-0.428934
-0.40779
-0.379996
-0.356862
-0.331731
-0.308532
-0.285104
-0.262914
-0.241127
-0.220807
-0.200757
-0.18339
-0.164432
-0.152373
-0.528914
-0.480801
-0.465643
-0.431157
-0.409734
-0.381453
-0.358094
-0.332689
-0.309302
-0.28568
-0.263322
-0.241383
-0.220914
-0.200772
-0.18326
-0.164353
-0.152037
-0.534806
-0.484336
-0.468907
-0.433385
-0.411679
-0.382904
-0.359309
-0.33362
-0.310031
-0.286202
-0.263663
-0.241561
-0.220932
-0.200692
-0.18303
-0.164178
-0.151601
-0.54071
-0.487877
-0.472177
-0.435614
-0.41362
-0.384342
-0.360503
-0.334517
-0.310714
-0.286664
-0.26393
-0.241653
-0.220855
-0.20051
-0.182695
-0.163902
-0.151062
-0.546613
-0.491416
-0.475446
-0.43784
-0.415553
-0.385765
-0.361671
-0.335376
-0.311344
-0.287059
-0.264117
-0.241653
-0.220676
-0.200222
-0.182249
-0.16352
-0.150417
-0.552503
-0.494946
-0.478707
-0.440057
-0.417473
-0.387168
-0.362808
-0.33619
-0.311915
-0.28738
-0.264216
-0.241553
-0.220388
-0.19982
-0.181689
-0.163026
-0.149666
-0.130696
-0.558368
-0.498459
-0.481953
-0.44226
-0.419375
-0.388544
-0.363908
-0.336954
-0.312421
-0.28762
-0.26422
-0.241346
-0.219985
-0.199298
-0.18101
-0.162416
-0.148808
-0.130423
-0.564196
-0.501947
-0.485177
-0.444444
-0.421253
-0.38989
-0.364964
-0.337661
-0.312854
-0.287773
-0.264121
-0.241026
-0.219462
-0.198652
-0.180209
-0.161685
-0.147842
-0.130054
-0.569975
-0.505402
-0.488371
-0.446603
-0.423101
-0.3912
-0.365973
-0.338305
-0.313207
-0.287829
-0.263913
-0.240586
-0.218812
-0.197877
-0.179282
-0.160831
-0.146769
-0.129577
-0.575695
-0.50882
-0.491531
-0.448734
-0.424916
-0.392468
-0.366926
-0.338879
-0.313473
-0.287783
-0.263589
-0.240019
-0.218031
-0.196969
-0.178227
-0.159849
-0.145589
-0.128977
-0.121387
-0.581336
-0.512184
-0.494643
-0.450825
-0.426687
-0.393687
-0.367816
-0.339375
-0.313644
-0.287626
-0.263141
-0.23932
-0.217113
-0.195923
-0.177041
-0.158737
-0.144303
-0.128238
-0.119844
-0.586888
-0.51549
-0.497701
-0.452872
-0.42841
-0.39485
-0.368637
-0.339785
-0.313713
-0.287352
-0.262563
-0.238482
-0.216055
-0.194737
-0.175722
-0.157492
-0.142909
-0.127352
-0.118293
-0.592339
-0.518728
-0.500697
-0.454869
-0.430077
-0.395951
-0.36938
-0.340102
-0.31367
-0.286951
-0.261848
-0.237501
-0.214851
-0.193407
-0.174269
-0.156113
-0.141408
-0.126315
-0.116731
-0.597675
-0.52189
-0.503623
-0.456809
-0.431681
-0.396983
-0.370038
-0.340318
-0.31351
-0.286418
-0.26099
-0.23637
-0.213499
-0.191931
-0.172679
-0.154598
-0.139797
-0.125129
-0.115143
-0.104634
-0.602881
-0.524966
-0.506469
-0.458684
-0.433215
-0.397936
-0.370603
-0.340424
-0.313222
-0.285745
-0.259982
-0.235087
-0.211995
-0.190307
-0.170953
-0.152947
-0.138078
-0.123794
-0.113517
-0.104003
-0.607946
-0.527946
-0.509227
-0.460485
-0.434669
-0.398804
-0.371065
-0.340412
-0.3128
-0.284924
-0.258818
-0.233645
-0.210336
-0.188533
-0.169089
-0.15116
-0.136247
-0.122315
-0.11184
-0.103125
-0.612853
-0.530822
-0.511886
-0.462206
-0.436036
-0.399577
-0.371416
-0.340273
-0.312235
-0.283949
-0.257494
-0.232041
-0.208521
-0.186608
-0.167087
-0.149236
-0.134304
-0.120691
-0.110103
-0.102029
-0.617588
-0.533582
-0.514437
-0.463836
-0.437306
-0.400247
-0.371646
-0.339998
-0.311518
-0.282812
-0.256004
-0.230273
-0.206546
-0.184532
-0.164946
-0.147176
-0.132247
-0.118928
-0.108295
-0.100738
-0.622138
-0.536216
-0.516869
-0.465368
-0.43847
-0.400803
-0.371747
-0.339578
-0.310642
-0.281507
-0.254343
-0.228336
-0.204411
-0.182304
-0.162667
-0.144981
-0.130076
-0.117025
-0.106407
-0.0992672
-0.626486
-0.538713
-0.519172
-0.466791
-0.439517
-0.401237
-0.371707
-0.339003
-0.309599
-0.280029
-0.252507
-0.226228
-0.202115
-0.179923
-0.160249
-0.142651
-0.127789
-0.114987
-0.10443
-0.097631
-0.630618
-0.541062
-0.521334
-0.468097
-0.440438
-0.401538
-0.371518
-0.338266
-0.308381
-0.27837
-0.250491
-0.223947
-0.199656
-0.177391
-0.157694
-0.140187
-0.125386
-0.112815
-0.102358
-0.0958393
-0.634518
-0.543253
-0.523345
-0.469273
-0.441222
-0.401696
-0.371169
-0.337357
-0.30698
-0.276526
-0.248293
-0.221491
-0.197034
-0.174707
-0.155001
-0.13759
-0.122866
-0.110511
-0.100184
-0.0938996
-0.638171
-0.545272
-0.525192
-0.47031
-0.441858
-0.401699
-0.37065
-0.336266
-0.30539
-0.27449
-0.245908
-0.218859
-0.194249
-0.171873
-0.152172
-0.134861
-0.120229
-0.108078
-0.0979038
-0.0918178
-0.641559
-0.54711
-0.526864
-0.471197
-0.442334
-0.401538
-0.369951
-0.334985
-0.303603
-0.272259
-0.243335
-0.21605
-0.191302
-0.168889
-0.149207
-0.132002
-0.117473
-0.105516
-0.0955124
-0.089598
-0.644668
-0.548752
-0.528347
-0.471922
-0.442639
-0.401201
-0.36906
-0.333506
-0.301612
-0.269828
-0.240571
-0.213063
-0.188193
-0.165757
-0.146108
-0.129014
-0.114599
-0.102827
-0.0930065
-0.0872435
-0.647481
-0.550187
-0.52963
-0.472474
-0.44276
-0.400677
-0.367969
-0.331819
-0.299411
-0.267193
-0.237614
-0.209898
-0.184922
-0.162478
-0.142875
-0.125899
-0.111607
-0.100014
-0.0903835
-0.0847563
-0.649981
-0.551403
-0.5307
-0.47284
-0.442686
-0.399954
-0.366666
-0.329917
-0.296995
-0.26435
-0.234462
-0.206556
-0.181491
-0.159052
-0.13951
-0.122657
-0.108498
-0.0970764
-0.0876412
-0.082138
-0.652151
-0.552385
-0.531542
-0.473009
-0.442404
-0.399021
-0.365142
-0.327791
-0.294357
-0.261296
-0.231115
-0.203035
-0.177901
-0.155483
-0.136015
-0.11929
-0.105271
-0.0940166
-0.0847779
-0.0793896
-0.653974
-0.553121
-0.532144
-0.472967
-0.441902
-0.397866
-0.363387
-0.325434
-0.291493
-0.258029
-0.227571
-0.199338
-0.174153
-0.151772
-0.132391
-0.115801
-0.101927
-0.0908357
-0.0817926
-0.0765119
-0.655434
-0.553599
-0.532491
-0.472701
-0.441166
-0.396479
-0.361391
-0.32284
-0.288398
-0.254546
-0.223831
-0.195466
-0.170249
-0.14792
-0.128639
-0.11219
-0.0984679
-0.0875352
-0.0786847
-0.0735055
-0.656514
-0.553803
-0.53257
-0.4722
-0.440184
-0.394848
-0.359145
-0.319999
-0.285067
-0.250845
-0.219895
-0.191419
-0.166191
-0.14393
-0.124762
-0.108459
-0.0948939
-0.0841164
-0.0754541
-0.0703708
-0.657196
-0.553721
-0.532367
-0.471448
-0.438944
-0.392961
-0.356639
-0.316908
-0.281497
-0.246926
-0.215763
-0.187199
-0.161981
-0.139804
-0.120762
-0.104611
-0.0912064
-0.0805809
-0.0721011
-0.0671084
-0.657463
-0.553338
-0.531866
-0.470434
-0.437432
-0.390808
-0.353865
-0.313559
-0.277685
-0.242787
-0.211435
-0.182807
-0.157621
-0.135544
-0.11664
-0.100648
-0.087407
-0.0769303
-0.0686264
-0.0637187
-0.657298
-0.552641
-0.531055
-0.469144
-0.435635
-0.388378
-0.350814
-0.309947
-0.273628
-0.238428
-0.206913
-0.178247
-0.153112
-0.131153
-0.112398
-0.0965704
-0.0834973
-0.0731665
-0.0650313
-0.0602026
-0.656685
-0.551616
-0.529918
-0.467564
-0.433543
-0.385661
-0.347479
-0.306067
-0.269324
-0.233849
-0.202198
-0.173519
-0.148459
-0.126632
-0.108039
-0.0923819
-0.0794793
-0.0692913
-0.0613172
-0.056561
-0.655606
-0.550249
-0.528442
-0.465682
-0.431141
-0.382646
-0.343853
-0.301915
-0.264771
-0.22905
-0.197292
-0.168626
-0.143662
-0.121985
-0.103565
-0.0880843
-0.0753552
-0.065307
-0.0574863
-0.0527951
-0.654044
-0.548526
-0.52661
-0.463483
-0.428418
-0.379324
-0.339927
-0.297488
-0.259968
-0.224032
-0.192197
-0.163571
-0.138725
-0.117213
-0.0989786
-0.0836802
-0.0711271
-0.0612159
-0.053541
-0.0489063
-0.651984
-0.546434
-0.524411
-0.460956
-0.425362
-0.375685
-0.335697
-0.29278
-0.254913
-0.218795
-0.186914
-0.158356
-0.13365
-0.11232
-0.0942824
-0.0791721
-0.0667978
-0.0570205
-0.0494842
-0.0448965
-0.64941
-0.543957
-0.521828
-0.458086
-0.421962
-0.371722
-0.331156
-0.287791
-0.249608
-0.213342
-0.181446
-0.152984
-0.12844
-0.107309
-0.0894789
-0.0745628
-0.0623699
-0.0527236
-0.0453192
-0.0407678
-0.646305
-0.541083
-0.518849
-0.454863
-0.418207
-0.367426
-0.3263
-0.282518
-0.244051
-0.207674
-0.175797
-0.147458
-0.123099
-0.102182
-0.084571
-0.0698551
-0.0578464
-0.0483284
-0.0410498
-0.0365228
-0.642655
-0.537799
-0.51546
-0.451272
-0.414087
-0.362789
-0.321123
-0.276958
-0.238244
-0.201793
-0.169967
-0.141781
-0.117628
-0.0969421
-0.0795615
-0.065052
-0.0532305
-0.043838
-0.0366801
-0.0321646
-0.638444
-0.534091
-0.511647
-0.447303
-0.409591
-0.357804
-0.315621
-0.271112
-0.232187
-0.195702
-0.163962
-0.135957
-0.112032
-0.0915926
-0.0744536
-0.0601566
-0.0485255
-0.039256
-0.0322146
-0.0276965
-0.633658
-0.529947
-0.507398
-0.442944
-0.40471
-0.352465
-0.309793
-0.264979
-0.225883
-0.189403
-0.157783
-0.129987
-0.106314
-0.0861366
-0.0692503
-0.0551722
-0.043735
-0.0345862
-0.0276582
-0.0231224
-0.628283
-0.525353
-0.5027
-0.438184
-0.399435
-0.346766
-0.303634
-0.258558
-0.219333
-0.182899
-0.151435
-0.123877
-0.100476
-0.0805774
-0.0639548
-0.0501022
-0.0388626
-0.0298324
-0.0230161
-0.0184466
-0.622307
-0.520299
-0.49754
-0.433013
-0.393759
-0.340703
-0.297144
-0.251851
-0.21254
-0.176194
-0.14492
-0.11763
-0.0945223
-0.0749182
-0.0585705
-0.0449501
-0.0339122
-0.024999
-0.0182938
-0.0136738
-0.615716
-0.514772
-0.491908
-0.42742
-0.387673
-0.334271
-0.290321
-0.244859
-0.205505
-0.169291
-0.138243
-0.111248
-0.0884564
-0.0691624
-0.0531008
-0.0397195
-0.0288877
-0.0200903
-0.013497
-0.00880935
-0.608499
-0.508761
-0.485792
-0.421397
-0.381172
-0.327467
-0.283164
-0.237583
-0.198234
-0.162194
-0.131407
-0.104736
-0.0822817
-0.0633135
-0.0475492
-0.0344142
-0.0237935
-0.015111
-0.00863181
-0.00385874
-0.600645
-0.502255
-0.479182
-0.414935
-0.374249
-0.320287
-0.275674
-0.230026
-0.190728
-0.154907
-0.124416
-0.0980981
-0.0760018
-0.0573752
-0.0419193
-0.029038
-0.0186335
-0.0100658
-0.00370422
0.00117191
-0.592146
-0.495246
-0.47207
-0.408028
-0.366901
-0.312731
-0.267851
-0.222191
-0.182992
-0.147434
-0.117275
-0.0913376
-0.0696205
-0.0513509
-0.0362148
-0.0235948
-0.0134122
-0.00495969
0.00127954
0.0062762
-0.582996
-0.487729
-0.46445
-0.40067
-0.359124
-0.304799
-0.259699
-0.214081
-0.175031
-0.139779
-0.109988
-0.0844586
-0.0631414
-0.0452443
-0.0304393
-0.0180886
-0.00813391
0.000202323
0.00631307
0.0114475
-0.573176
-0.479686
-0.456306
-0.392849
-0.350911
-0.296486
-0.251216
-0.205699
-0.166848
-0.131947
-0.102559
-0.0774654
-0.0565686
-0.0390595
-0.0245969
-0.0125236
-0.00280325
0.00541502
0.0113893
0.0166788
-0.562683
-0.471111
-0.447633
-0.384563
-0.34226
-0.287795
-0.242407
-0.197049
-0.158448
-0.123944
-0.0949929
-0.0703623
-0.0499062
-0.0328002
-0.0186914
-0.00690406
0.00257531
0.0106735
0.0165016
0.0219629
-0.551513
-0.462
-0.438428
-0.375807
-0.333172
-0.278727
-0.233276
-0.188138
-0.149837
-0.115774
-0.0872943
-0.0631535
-0.043158
-0.0264703
-0.0127267
-0.00123396
0.00799717
0.0159719
0.0216457
0.0272908
-0.53966
-0.452346
-0.428684
-0.366579
-0.323646
-0.269285
-0.223827
-0.178969
-0.14102
-0.107442
-0.0794681
-0.0558434
-0.0363282
-0.0200739
-0.00670689
0.00448245
0.0134578
0.0213038
0.0268152
0.0326557
-0.52712
-0.442144
-0.418397
-0.356876
-0.313682
-0.259472
-0.214064
-0.169549
-0.132003
-0.0989534
-0.0715191
-0.0484366
-0.0294209
-0.0136149
-0.000635954
0.0102405
0.018953
0.0266649
0.032003
0.0380496
-0.513892
-0.431391
-0.407565
-0.346696
-0.303281
-0.24929
-0.203992
-0.159883
-0.122791
-0.0903146
-0.0634525
-0.0409375
-0.0224405
-0.00709747
0.00548201
0.0160362
0.0244779
0.0320499
0.0372033
0.0434645
-0.499973
-0.420083
-0.396185
-0.33604
-0.292447
-0.238745
-0.193619
-0.149978
-0.113393
-0.0815309
-0.0552733
-0.0333509
-0.0153911
-0.000525781
0.011643
0.0218653
0.0300282
0.0374532
0.0424107
0.0488922
-0.485364
-0.408217
-0.384257
-0.324907
-0.281181
-0.227842
-0.18295
-0.139841
-0.103812
-0.0726082
-0.0469869
-0.0256814
-0.00827721
0.00609607
0.017843
0.0277234
0.0355993
0.0428697
0.0476196
0.0543247
-0.470065
-0.395793
-0.37178
-0.3133
-0.269489
-0.216586
-0.171992
-0.129478
-0.0940576
-0.0635526
-0.0385985
-0.0179339
-0.00110323
0.0127639
0.0240777
0.0336065
0.0411868
0.0482941
0.052825
0.059754
-0.45408
-0.382812
-0.358755
-0.301222
-0.257376
-0.204985
-0.160753
-0.118899
-0.0841355
-0.0543702
-0.0301136
-0.0101135
0.00612655
0.0194735
0.0303431
0.0395101
0.0467866
0.0537213
0.0580219
0.0651719
-0.437411
-0.369273
-0.345187
-0.288676
-0.244848
-0.193046
-0.149242
-0.108109
-0.074053
-0.0450674
-0.0215383
-0.00222458
0.0134075
0.0262207
0.0366351
0.0454302
0.0523944
0.0591465
0.0632059
0.0705708
-0.420066
-0.35518
-0.331077
-0.275667
-0.231912
-0.180777
-0.137466
-0.0971181
-0.0638177
-0.0356509
-0.0128776
0.00572749
0.020735
0.033001
0.0429496
0.0513626
0.058006
0.0645648
0.0683726
0.075943
-0.402049
-0.340536
-0.316432
-0.262201
-0.218576
-0.168188
-0.125435
-0.0859343
-0.0534371
-0.0261271
-0.00413751
0.0137376
0.0281046
0.0398103
0.0492824
0.0573033
0.0636176
0.0699716
0.0735182
0.0812812
-0.38337
-0.325346
-0.301257
-0.248285
-0.204849
-0.155287
-0.11316
-0.0745664
-0.0429193
-0.0165028
0.00467615
0.0218007
0.0355115
0.0466443
0.0556296
0.0632482
0.0692252
0.0753624
0.0786389
0.0865784
-0.364038
-0.309616
-0.285561
-0.233928
-0.190742
-0.142085
-0.100648
-0.0630236
-0.0322721
-0.00678489
0.0135574
0.0299115
0.0429511
0.0534986
0.0619871
0.0691933
0.074825
0.080733
0.0837313
0.0918278
-0.344065
-0.293354
-0.269352
-0.219139
-0.176264
-0.128593
-0.0879126
-0.0513153
-0.0215036
0.00301962
0.0225002
0.0380648
0.0504188
0.060369
0.0683508
0.0751349
0.0804133
0.0860792
0.0887925
0.0970233
-0.323462
-0.276567
-0.252639
-0.203928
-0.161428
-0.114822
-0.074963
-0.0394512
-0.0106223
0.0129036
0.0314985
0.0462552
0.0579096
0.0672511
0.0747169
0.081069
0.0859867
0.0913973
0.0938196
0.102159
-0.302243
-0.259267
-0.235435
-0.188307
-0.146245
-0.100785
-0.0618109
-0.027441
0.000363234
0.0228598
0.0405459
0.0544774
0.065419
0.0741407
0.0810813
0.086992
0.0915416
0.0966836
0.0988101
0.107229
-0.280425
-0.241464
-0.217751
-0.172288
-0.130731
-0.0864934
-0.0484681
-0.0152951
0.0114443
0.032881
0.0496364
0.0627258
0.072942
0.0810334
0.0874402
0.0929003
0.0970748
0.101935
0.103762
0.11223
-0.258023
-0.223171
-0.199603
-0.155884
-0.114897
-0.0719612
-0.0349465
-0.0030238
0.0226121
0.0429595
0.0587635
0.0709952
0.0804739
0.087925
0.0937896
0.0987902
0.102583
0.107147
0.108672
0.117155
-0.235057
-0.2044
-0.181003
-0.13911
-0.0987596
-0.0572024
-0.0212586
0.00936236
0.0338576
0.053088
0.0679207
0.0792798
0.0880099
0.0948111
0.100126
0.104658
0.108063
0.112318
0.11354
0.122003
-0.211546
-0.185169
-0.16197
-0.121982
-0.0823338
-0.0422306
-0.00741716
0.0218525
0.0451718
0.0632588
0.0771017
0.0875742
0.095545
0.101687
0.106445
0.110501
0.113513
0.117444
0.118364
0.126768
-0.187511
-0.165491
-0.14252
-0.104514
-0.0656361
-0.0270605
0.0065649
0.0344358
0.0565453
0.0734641
0.0862998
0.0958727
0.103074
0.10855
0.112743
0.116315
0.118928
0.122524
0.123142
0.131448
-0.162974
-0.145386
-0.122672
-0.0867258
-0.0486834
-0.0117073
0.0206743
0.0471009
0.0679688
0.0836961
0.0955084
0.10417
0.110593
0.115394
0.119016
0.122098
0.124307
0.127553
0.127872
0.136041
-0.13796
-0.124872
-0.102443
-0.0686354
-0.0314932
0.00381349
0.0348974
0.0598366
0.0794329
0.0939469
0.104721
0.11246
0.118096
0.122216
0.125262
0.127845
0.129647
0.132531
0.132555
0.140544
-0.112493
-0.103968
-0.081857
-0.0502605
-0.0140838
0.019486
0.0492205
0.0726314
0.0909279
0.104209
0.113931
0.120736
0.125579
0.129011
0.131475
0.133554
0.134944
0.137454
0.13719
0.144955
-0.0865996
-0.0826968
-0.0609348
-0.031621
0.00352627
0.035294
0.0636295
0.0854737
0.102444
0.114473
0.123131
0.128995
0.133037
0.135775
0.137652
0.139222
0.140198
0.142322
0.141774
0.149273
-0.0603053
-0.0610814
-0.039699
-0.0127376
0.0213176
0.051221
0.0781103
0.0983517
0.113972
0.124733
0.132314
0.137229
0.140464
0.142503
0.143791
0.144846
0.145404
0.147131
0.146309
0.153497
-0.0336427
-0.0391423
-0.0181733
0.00636846
0.0392705
0.0672499
0.0926485
0.111254
0.125501
0.134979
0.141475
0.145432
0.147856
0.149193
0.149886
0.150423
0.150562
0.15188
0.150794
0.157624
-0.00664457
-0.0169017
0.00361771
0.0256753
0.0573648
0.0833637
0.107229
0.124168
0.137023
0.145203
0.150605
0.1536
0.155208
0.155839
0.155935
0.155949
0.155668
0.156567
0.155229
0.161655
0.0206628
0.00561135
0.0256485
0.0451605
0.0755798
0.099545
0.121838
0.137081
0.148526
0.155397
0.159698
0.161726
0.162515
0.162437
0.161935
0.161423
0.16072
0.161192
0.159615
0.165588
0.0482471
0.0283705
0.0478928
0.0648007
0.0938945
0.115776
0.136461
0.149983
0.160001
0.165554
0.168748
0.169804
0.169772
0.168983
0.16788
0.166841
0.165716
0.165751
0.163951
0.169423
0.0760746
0.0513491
0.0703235
0.0845725
0.112288
0.132039
0.151081
0.16286
0.171437
0.175664
0.177746
0.177829
0.176974
0.175473
0.173769
0.1722
0.170654
0.170245
0.168239
0.173157
0.104111
0.0745189
0.0929128
0.104452
0.130738
0.148316
0.165685
0.175701
0.182826
0.18572
0.186687
0.185795
0.184116
0.181903
0.179598
0.177499
0.175532
0.174671
0.17248
0.176789
0.132321
0.0978511
0.115632
0.124413
0.149222
0.164589
0.180257
0.188492
0.194156
0.195712
0.195563
0.193695
0.191193
0.188269
0.185362
0.182733
0.180347
0.179028
0.176676
0.180316
0.160669
0.121316
0.138453
0.144433
0.16772
0.18084
0.194782
0.201223
0.205417
0.205633
0.204367
0.201525
0.1982
0.194566
0.191059
0.187901
0.185096
0.183314
0.180831
0.183747
0.18912
0.144883
0.161345
0.164485
0.186208
0.19705
0.209245
0.21388
0.2166
0.215474
0.213092
0.209277
0.205133
0.200791
0.196685
0.193
0.189778
0.18753
0.184962
0.187104
0.217636
0.168522
0.184279
0.184544
0.204664
0.213201
0.22363
0.226451
0.227694
0.225228
0.221732
0.216947
0.211987
0.206939
0.202237
0.198026
0.194389
0.191676
0.189095
0.190325
0.246172
0.192198
0.207223
0.204582
0.223064
0.229274
0.237923
0.238924
0.238689
0.234885
0.230279
0.224529
0.218756
0.213007
0.207712
0.202978
0.198926
0.195754
0.193198
0.193052
0.274675
0.215869
0.230141
0.224573
0.241387
0.245252
0.252108
0.251287
0.249575
0.244438
0.238726
0.232017
0.225436
0.21899
0.213105
0.207853
0.203385
0.199764
0.19715
0.194941
0.30315
0.239526
0.253013
0.244495
0.25961
0.261115
0.266171
0.263528
0.260342
0.253877
0.247068
0.239405
0.232022
0.224885
0.218414
0.212647
0.207765
0.203699
0.201039
0.197459
0.331543
0.263128
0.275805
0.264319
0.277711
0.276846
0.280095
0.275633
0.270981
0.263196
0.255296
0.246688
0.238509
0.230687
0.223635
0.217358
0.212062
0.207559
0.204793
0.200359
0.359807
0.286638
0.298482
0.284018
0.295667
0.292425
0.293867
0.287592
0.28148
0.272386
0.263404
0.253859
0.244893
0.236392
0.228765
0.221984
0.216274
0.211345
0.208404
0.2033
0.387902
0.310022
0.321013
0.303567
0.313454
0.307836
0.307471
0.299393
0.291831
0.281438
0.271386
0.260914
0.251169
0.241997
0.233801
0.226521
0.2204
0.215055
0.211894
0.206218
0.41579
0.333247
0.343367
0.322938
0.331051
0.323059
0.320893
0.311023
0.302023
0.290346
0.279234
0.267846
0.257332
0.247498
0.238739
0.230968
0.224436
0.218688
0.215272
0.20912
0.44343
0.356279
0.365512
0.342105
0.348436
0.338078
0.334117
0.322471
0.312048
0.2991
0.286943
0.274651
0.263378
0.252891
0.243577
0.235322
0.228382
0.222242
0.218546
0.211999
0.470782
0.379084
0.387415
0.361042
0.365585
0.352873
0.347131
0.333725
0.321895
0.307693
0.294505
0.281322
0.269302
0.258172
0.248312
0.23958
0.232236
0.225716
0.221719
0.214843
0.497808
0.401628
0.409046
0.379722
0.382477
0.367429
0.359918
0.344773
0.331555
0.316117
0.301915
0.287855
0.2751
0.263338
0.25294
0.243739
0.235996
0.229108
0.224795
0.217643
0.524466
0.423878
0.430374
0.398121
0.399091
0.381726
0.372466
0.355605
0.341019
0.324366
0.309165
0.294244
0.280767
0.268384
0.257458
0.247798
0.23966
0.232416
0.227777
0.220393
0.550719
0.4458
0.451366
0.416212
0.415404
0.395749
0.38476
0.366209
0.350277
0.33243
0.31625
0.300485
0.286299
0.273308
0.261864
0.251754
0.243227
0.235639
0.230668
0.223088
0.576526
0.46736
0.471993
0.433971
0.431397
0.409481
0.396787
0.376574
0.359321
0.340303
0.323163
0.306571
0.291692
0.278105
0.266154
0.255605
0.246697
0.238774
0.23347
0.225723
0.601849
0.488526
0.492223
0.451372
0.447048
0.422905
0.408533
0.38669
0.368142
0.347978
0.329899
0.312498
0.296942
0.282773
0.270326
0.259348
0.250066
0.24182
0.236183
0.228293
0.62665
0.509265
0.512028
0.468391
0.462337
0.436005
0.419986
0.396546
0.376731
0.355447
0.336451
0.318261
0.302044
0.287308
0.274377
0.262981
0.253333
0.244776
0.238809
0.230796
0.650892
0.529544
0.531378
0.485005
0.477243
0.448766
0.431132
0.406132
0.38508
0.362704
0.342814
0.323855
0.306995
0.291706
0.278305
0.266502
0.256498
0.24764
0.241347
0.233228
0.674537
0.549333
0.550243
0.501188
0.491749
0.461171
0.441959
0.415437
0.393181
0.369741
0.348983
0.329276
0.31179
0.295964
0.282106
0.269909
0.259558
0.25041
0.243799
0.235587
0.69755
0.568599
0.568596
0.51692
0.505834
0.473206
0.452455
0.424453
0.401025
0.376553
0.354951
0.334519
0.316426
0.30008
0.285778
0.273199
0.262511
0.253085
0.246164
0.237871
0.719894
0.587313
0.586408
0.532177
0.51948
0.484857
0.462609
0.433168
0.408604
0.383132
0.360713
0.339579
0.320899
0.304049
0.289318
0.27637
0.265357
0.255663
0.248442
0.240076
0.741536
0.605446
0.603654
0.546937
0.53267
0.496108
0.472408
0.441575
0.415912
0.389473
0.366264
0.344452
0.325205
0.30787
0.292725
0.279421
0.268093
0.258143
0.250632
0.242201
0.762442
0.622967
0.620307
0.56118
0.545385
0.506947
0.481841
0.449664
0.422941
0.395569
0.3716
0.349135
0.329341
0.311538
0.295994
0.282348
0.270719
0.260523
0.252733
0.244244
0.78258
0.63985
0.636342
0.574885
0.55761
0.51736
0.490899
0.457427
0.429683
0.401415
0.376715
0.353622
0.333304
0.315052
0.299125
0.285151
0.273231
0.262801
0.254744
0.246203
0.801917
0.656067
0.651735
0.588033
0.569327
0.527335
0.49957
0.464855
0.436132
0.407005
0.381604
0.35791
0.33709
0.318408
0.302115
0.287827
0.27563
0.264976
0.256665
0.248077
0.820424
0.671592
0.666461
0.600604
0.580523
0.536859
0.507844
0.471941
0.442282
0.412333
0.386263
0.361996
0.340696
0.321604
0.304962
0.290374
0.277913
0.267047
0.258494
0.249863
0.838072
0.6864
0.680499
0.61258
0.591181
0.545921
0.515713
0.478677
0.448126
0.417395
0.390689
0.365875
0.344119
0.324637
0.307662
0.29279
0.280078
0.269012
0.260231
0.251561
0.854832
0.700467
0.693827
0.623945
0.601287
0.554509
0.523167
0.485055
0.453657
0.422186
0.394875
0.369544
0.347356
0.327505
0.310216
0.295075
0.282125
0.27087
0.261873
0.253167
0.870679
0.71377
0.706424
0.634682
0.610829
0.562613
0.530198
0.491068
0.458872
0.4267
0.39882
0.373
0.350405
0.330205
0.312619
0.297225
0.284052
0.272619
0.26342
0.254682
0.885586
0.726287
0.718272
0.644775
0.619794
0.570223
0.536798
0.496711
0.463763
0.430934
0.402519
0.376241
0.353263
0.332735
0.314871
0.29924
0.285857
0.274259
0.264871
0.256103
0.899531
0.737999
0.729352
0.654209
0.628169
0.577329
0.542958
0.501977
0.468327
0.434883
0.405968
0.379262
0.355927
0.335094
0.316971
0.301117
0.287539
0.275787
0.266225
0.257429
0.912491
0.748886
0.739647
0.662972
0.635943
0.583923
0.548673
0.50686
0.472558
0.438544
0.409165
0.382062
0.358395
0.337279
0.318915
0.302856
0.289097
0.277202
0.267479
0.258659
0.924445
0.758929
0.74914
0.67105
0.643107
0.589997
0.553934
0.511356
0.476452
0.441913
0.412106
0.384637
0.360665
0.339289
0.320703
0.304455
0.29053
0.278504
0.268634
0.259792
0.935375
0.768113
0.757819
0.678431
0.64965
0.595543
0.558737
0.515458
0.480005
0.444986
0.414789
0.386986
0.362736
0.341121
0.322333
0.305913
0.291836
0.279691
0.269688
0.260825
0.945262
0.776422
0.765668
0.685106
0.655564
0.600554
0.563076
0.519163
0.483214
0.44776
0.417211
0.389106
0.364604
0.342774
0.323804
0.307228
0.293014
0.280762
0.270639
0.261759
0.954091
0.783843
0.772676
0.691063
0.660841
0.605024
0.566946
0.522467
0.486074
0.450234
0.41937
0.390995
0.366269
0.344248
0.325114
0.3084
0.294065
0.281717
0.271488
0.262591
0.961848
0.790364
0.778832
0.696295
0.665474
0.608948
0.570341
0.525366
0.488583
0.452403
0.421263
0.392652
0.367729
0.34554
0.326263
0.309427
0.294986
0.282554
0.272232
0.263322
0.96852
0.795973
0.784126
0.700794
0.669457
0.61232
0.573259
0.527857
0.490739
0.454267
0.422889
0.394075
0.368983
0.346649
0.32725
0.31031
0.295776
0.283274
0.272872
0.26395
0.974097
0.800662
0.788551
0.704553
0.672784
0.615137
0.575696
0.529936
0.492539
0.455823
0.424247
0.395264
0.37003
0.347575
0.328073
0.311046
0.296436
0.283874
0.273406
0.264475
0.978569
0.804422
0.792099
0.707567
0.675451
0.617394
0.577649
0.531603
0.493982
0.45707
0.425335
0.396215
0.370868
0.348317
0.328733
0.311636
0.296965
0.284355
0.273834
0.264895
0.98193
0.807248
0.794765
0.709831
0.677455
0.61909
0.579116
0.532854
0.495065
0.458006
0.426151
0.39693
0.371498
0.348874
0.329228
0.312079
0.297362
0.284716
0.274156
0.265211
0.984173
0.809134
0.796544
0.711342
0.678792
0.620222
0.580094
0.53369
0.495788
0.45863
0.426696
0.397407
0.371918
0.349246
0.329559
0.312375
0.297627
0.284957
0.27437
0.265422
0.985295
0.810078
0.797435
0.712099
0.679461
0.620788
0.580584
0.534107
0.496149
0.458943
0.426969
0.397645
0.372128
0.349431
0.329724
0.312522
0.297759
0.285077
0.274478
0.265527
0.985295
0.810078
0.797435
0.712099
0.679461
0.620788
0.580584
0.534107
0.496149
0.458943
0.426969
0.397645
0.372128
0.349431
0.329724
0.312522
0.297759
0.285077
0.274478
0.265527
0.984173
0.809134
0.796544