/*--------------------------------*- C++ -*----------------------------------*\
  =========                 |
  \\      /  F ield         | OpenFOAM: The Open Source CFD Toolbox
   \\    /   O peration     | Website:  https://openfoam.org
    \\  /    A nd           | Version:  7
     \\/     M anipulation  |
\*---------------------------------------------------------------------------*/
FoamFile
{
    version     2.0;
    format      ascii;
    class       volVectorField;
    location    "15";
    object      U;
}
// * * * * * * * * * * * * * * * * * * * * * * * * * * * * * * * * * * * * * //

dimensions      [0 1 -1 0 0 0 0];

internalField   nonuniform List<vector> 
21000
(
(-0.0017733 0.000225404 -6.35397e-21)
(-0.00438166 0.000123442 2.1074e-21)
(-0.00475937 -0.000152705 -8.21621e-22)
(-0.000717693 -0.000536252 -4.23551e-21)
(0.00753547 -0.000924625 -9.94312e-22)
(0.0197353 -0.00131051 4.42e-21)
(0.0355049 -0.00166464 5.54982e-21)
(0.0542576 -0.00199067 -4.66537e-21)
(0.0756379 -0.0022819 6.45427e-21)
(0.0991795 -0.00254255 -1.81545e-21)
(0.124555 -0.00277257 -1.0868e-21)
(0.151489 -0.00297493 -2.0691e-22)
(0.179601 -0.00315117 -4.12362e-21)
(0.20892 -0.00330395 -3.68057e-21)
(-0.00178313 0.000673702 6.54261e-21)
(-0.00433845 0.000366013 -1.20022e-20)
(-0.00461649 -0.000462594 -4.16239e-21)
(-0.000453842 -0.00161261 3.01161e-21)
(0.00793782 -0.00277658 -8.01149e-21)
(0.0202862 -0.00393285 -1.5874e-21)
(0.0362146 -0.00499363 2.13093e-21)
(0.0551344 -0.00596997 -8.98266e-21)
(0.0766909 -0.00684179 -3.89521e-21)
(0.100418 -0.00762174 3.81113e-21)
(0.125988 -0.00830968 -8.12158e-21)
(0.153126 -0.00891443 -3.99079e-21)
(0.181452 -0.00944067 3.56243e-21)
(0.210997 -0.00989623 1.12954e-20)
(-0.00180245 0.0011147 2.32852e-21)
(-0.00425144 0.000596164 6.6531e-21)
(-0.00433012 -0.00078518 -7.69313e-21)
(7.43458e-05 -0.00269961 1.1032e-20)
(0.00874277 -0.00463559 2.09434e-20)
(0.021388 -0.00655788 -1.66397e-20)
(0.0376336 -0.00832033 -2.18304e-21)
(0.0568871 -0.00994162 2.09915e-21)
(0.0787953 -0.0113883 -6.18841e-21)
(0.102891 -0.0126814 -1.91362e-20)
(0.12885 -0.0138207 -1.08324e-20)
(0.156396 -0.0148208 -4.02176e-21)
(0.185148 -0.0156896 1.02066e-20)
(0.215142 -0.0164397 -1.40541e-21)
(-0.00183059 0.00154359 -2.56552e-20)
(-0.00411944 0.000805706 -8.06258e-21)
(-0.00389908 -0.00112882 4.04109e-20)
(0.000867844 -0.00380424 -1.34923e-20)
(0.00995085 -0.00650624 -3.44618e-20)
(0.0230405 -0.00918728 3.76334e-20)
(0.0397608 -0.0116431 -2.57446e-20)
(0.0595135 -0.0139004 -9.75985e-21)
(0.0819475 -0.0159123 6.09329e-21)
(0.106595 -0.0177084 1.5397e-20)
(0.133133 -0.0192882 1.65327e-20)
(0.161287 -0.020672 -1.06792e-20)
(0.190674 -0.021871 1.04532e-20)
(0.221336 -0.0229019 -2.3858e-20)
(-0.00186651 0.00195564 3.55662e-20)
(-0.00394068 0.000986588 -2.15797e-20)
(-0.00332154 -0.00150171 -5.30987e-20)
(0.00192811 -0.0049333 4.1298e-20)
(0.0115628 -0.00839294 2.58236e-20)
(0.0252437 -0.0118226 -2.97039e-20)
(0.0425948 -0.0149602 2.88595e-20)
(0.0630107 -0.0178411 -1.61927e-20)
(0.0861425 -0.0204048 1.7692e-20)
(0.111522 -0.0226896 5.67519e-21)
(0.138827 -0.0246947 -9.25811e-22)
(0.167784 -0.026446 1.4005e-20)
(0.19801 -0.0279581 -1.81695e-20)
(0.229551 -0.0292509 1.25818e-20)
(-0.00190887 0.0023462 2.03576e-20)
(-0.00371282 0.00113095 2.76381e-20)
(-0.00259514 -0.00191186 6.05093e-20)
(0.00325706 -0.00609337 -7.65912e-20)
(0.0135798 -0.0102999 -7.3362e-20)
(0.0279973 -0.0144651 6.70723e-20)
(0.0461339 -0.0182698 -4.64348e-21)
(0.0673746 -0.0217581 5.24479e-20)
(0.0913734 -0.0248565 -3.18943e-20)
(0.117661 -0.0276118 4.65483e-20)
(0.145916 -0.030023 1.64758e-20)
(0.175867 -0.0321211 -1.02297e-20)
(0.207127 -0.0339244 -2.33633e-20)
(0.23975 -0.0354551 -1.39307e-21)
(-0.001956 0.00271077 -5.94692e-20)
(-0.00343295 0.00123116 -1.55688e-20)
(-0.00171692 -0.00236693 -4.51833e-21)
(0.00485711 -0.00729076 4.62512e-20)
(0.016003 -0.0122311 9.04097e-20)
(0.0313009 -0.017116 -4.69374e-20)
(0.0503757 -0.0215695 -3.32007e-20)
(0.0726002 -0.0256459 1.30748e-20)
(0.0976319 -0.0292582 5.92635e-20)
(0.124999 -0.0324618 -5.05784e-20)
(0.154382 -0.0352556 -3.8319e-20)
(0.185509 -0.0376754 -2.60308e-20)
(0.217992 -0.0397438 3.59511e-20)
(0.251887 -0.0414835 3.13141e-20)
(-0.00200591 0.00304503 1.08665e-20)
(-0.0030976 0.00127991 3.19096e-20)
(-0.000683371 -0.00287425 -6.83558e-20)
(0.00673107 -0.00853142 -3.11576e-21)
(0.0188339 -0.01419 -2.33687e-20)
(0.0351544 -0.0197758 -7.54862e-20)
(0.0553172 -0.0248569 5.3491e-20)
(0.0786814 -0.0294985 3.10687e-21)
(0.104908 -0.0336001 -7.34582e-20)
(0.133521 -0.0372262 -6.29052e-21)
(0.164203 -0.0403751 1.62455e-20)
(0.196681 -0.0430876 5.26263e-20)
(0.230562 -0.0453904 -2.54682e-20)
(0.265909 -0.0473058 -2.36255e-20)
(-0.00205632 0.00334481 3.47369e-20)
(-0.00270279 0.00127021 -2.94209e-20)
(0.00050956 -0.00344078 -3.44481e-20)
(0.00888222 -0.00982086 -2.56067e-20)
(0.0220743 -0.0161798 -1.57336e-21)
(0.0395573 -0.022445 3.2146e-20)
(0.0609554 -0.0281292 -1.53054e-20)
(0.0856113 -0.0333097 -9.79797e-20)
(0.113189 -0.0378726 7.19047e-20)
(0.143208 -0.0418915 7.23783e-20)
(0.175353 -0.0453643 1.21683e-20)
(0.209347 -0.0483362 -3.20492e-20)
(0.244791 -0.0508389 -1.14822e-20)
(0.281753 -0.0528925 -6.96134e-21)
(-0.00210464 0.00360617 2.09675e-20)
(-0.00224402 0.00119546 8.51226e-20)
(0.00186644 -0.00407301 1.27041e-19)
(0.0113142 -0.0111641 8.21525e-20)
(0.0257261 -0.0182031 3.35093e-21)
(0.0445091 -0.0251235 2.44135e-20)
(0.0672862 -0.0313832 3.38844e-20)
(0.0933819 -0.037073 -1.9701e-20)
(0.122462 -0.0420655 -9.21567e-20)
(0.154042 -0.0464441 -9.19827e-20)
(0.187802 -0.0502059 -2.49493e-21)
(0.223467 -0.0534004 7.6345e-20)
(0.260625 -0.0560646 -1.64679e-20)
(0.299347 -0.0582151 8.6986e-21)
(0.338698 -0.0599097 -2.25071e-20)
(-0.00214805 0.00382543 -3.68789e-20)
(-0.00171632 0.00104951 -9.53558e-20)
(0.00339232 -0.00477692 -2.5483e-20)
(0.0140312 -0.0125657 -1.10849e-19)
(0.0297914 -0.0202623 2.76576e-20)
(0.0500091 -0.0278106 -6.21123e-20)
(0.0743056 -0.0346152 -6.73933e-20)
(0.101984 -0.0407813 2.711e-20)
(0.132712 -0.0461687 3.43516e-20)
(0.165998 -0.0508702 -1.78711e-20)
(0.20152 -0.0548826 -8.81694e-20)
(0.238995 -0.0582594 -9.90686e-20)
(0.278003 -0.0610435 4.75907e-20)
(0.318614 -0.0632464 -1.21397e-20)
(0.35985 -0.0649478 -7.92676e-21)
(-0.00218342 0.00399914 -9.27141e-20)
(-0.00111423 0.000826669 -3.53599e-20)
(0.00509274 -0.00555793 3.84614e-20)
(0.0170375 -0.0140294 8.07253e-20)
(0.0342726 -0.0223588 -7.27894e-20)
(0.0560567 -0.0305052 9.7517e-20)
(0.0820086 -0.0378209 1.25731e-19)
(0.111408 -0.0444275 3.17585e-20)
(0.143923 -0.0501716 -1.70735e-20)
(0.179051 -0.055156 1.27579e-19)
(0.216469 -0.0593772 1.64974e-19)
(0.255884 -0.0628929 1.22278e-19)
(0.296862 -0.0657521 -4.92837e-20)
(0.339468 -0.0679601 -8.6761e-22)
(0.38268 -0.0696227 1.1522e-20)
(-0.00220742 0.00412417 8.53705e-20)
(-0.00043189 0.000521755 5.71219e-20)
(0.00697366 -0.00642082 -9.32553e-20)
(0.020338 -0.0155587 -4.52541e-20)
(0.039172 -0.0244935 5.58336e-20)
(0.0626509 -0.0332056 -5.7804e-20)
(0.0903901 -0.0409958 -2.49803e-20)
(0.121642 -0.0480038 2.41427e-20)
(0.156075 -0.0540632 3.11799e-20)
(0.193175 -0.0592875 -3.5531e-20)
(0.232611 -0.0636729 -5.36212e-20)
(0.274079 -0.067281 -6.45344e-20)
(0.317129 -0.070168 2.70098e-20)
(0.361817 -0.0723317 -1.51031e-20)
(0.407072 -0.0739079 3.56994e-20)
(-0.00221644 0.00419746 -7.82637e-20)
(0.000336919 0.00013034 9.76941e-20)
(0.00904144 -0.00736973 2.77276e-20)
(0.0239377 -0.0171559 3.62189e-20)
(0.0444922 -0.0266668 1.28002e-19)
(0.0697908 -0.0359094 -6.10808e-20)
(0.0994441 -0.0441346 -1.55673e-19)
(0.132675 -0.0515019 2.97809e-21)
(0.16915 -0.0578323 -5.60164e-21)
(0.208339 -0.0632506 -1.18313e-19)
(0.249903 -0.0677526 -6.28035e-20)
(0.293523 -0.0714043 -4.25597e-20)
(0.338728 -0.0742698 -1.75799e-20)
(0.385561 -0.076338 2.73273e-21)
(0.432901 -0.0777792 -6.95308e-20)
(-0.00220649 0.00421593 4.67234e-20)
(0.00119872 -0.00035107 -7.22103e-20)
(0.0113028 -0.00840808 9.64917e-21)
(0.0278419 -0.018823 -1.59366e-19)
(0.0502358 -0.0288782 -1.19565e-19)
(0.077475 -0.0386136 1.35287e-19)
(0.109164 -0.0472314 -2.22755e-20)
(0.144494 -0.0549131 8.76746e-20)
(0.183125 -0.0614674 1.43054e-20)
(0.224511 -0.0670309 1.06027e-19)
(0.2683 -0.0715997 7.79313e-20)
(0.314155 -0.0752439 -1.82292e-20)
(0.36158 -0.0780367 3.23589e-20)
(0.410597 -0.0799575 1.00706e-19)
(0.460035 -0.0812149 2.12485e-20)
(-0.00217367 0.00417801 5.5698e-20)
(0.00216074 -0.000926393 2.86367e-20)
(0.0137646 -0.00953858 -2.7441e-20)
(0.0320563 -0.020561 1.91864e-19)
(0.0564055 -0.0311265 -1.05704e-19)
(0.0857023 -0.0413142 -1.02092e-19)
(0.119544 -0.0502797 7.07184e-20)
(0.157084 -0.0582282 -1.03817e-20)
(0.197978 -0.0649567 6.47824e-20)
(0.241658 -0.0706142 -7.01058e-20)
(0.287755 -0.0751976 2.72852e-20)
(0.335909 -0.0787818 3.64336e-20)
(0.385597 -0.0814497 1.24054e-19)
(0.436814 -0.0831709 -8.81195e-20)
(0.488337 -0.0841959 -5.60984e-20)
(-0.00211417 0.00408247 -9.7021e-20)
(0.00323032 -0.00159901 -4.65507e-20)
(0.0164345 -0.0107631 1.02656e-19)
(0.0365866 -0.0223701 -2.54181e-20)
(0.0630038 -0.0334095 1.02993e-19)
(0.0944708 -0.0440069 1.45583e-19)
(0.130575 -0.0532724 -6.18232e-20)
(0.170431 -0.0614375 -6.97032e-20)
(0.213685 -0.0682878 -2.02329e-19)
(0.259741 -0.0739862 1.47277e-19)
(0.308215 -0.0785302 -1.85941e-20)
(0.358717 -0.0820005 -1.0527e-20)
(0.410691 -0.0844906 -7.58394e-20)
(0.464099 -0.0859604 4.52153e-20)
(0.517664 -0.0867057 4.22157e-20)
(-0.00202365 0.00392732 -4.42208e-20)
(0.00441482 -0.00237054 -3.41121e-20)
(0.0193198 -0.0120828 -1.28727e-19)
(0.0414386 -0.0242497 -1.78237e-20)
(0.0700335 -0.0357245 7.84411e-20)
(0.103779 -0.0466863 -1.19585e-19)
(0.14225 -0.0562015 1.91089e-20)
(0.184518 -0.0645306 7.67336e-20)
(0.230218 -0.0714484 1.51168e-19)
(0.278724 -0.0771322 -1.50185e-19)
(0.329628 -0.0815816 -5.19277e-20)
(0.382506 -0.0848833 7.43588e-20)
(0.436767 -0.0871428 1.69326e-20)
(0.492332 -0.0883108 2.10477e-20)
(0.547871 -0.0887312 3.55505e-20)
(-0.00189768 0.0037112 2.17387e-19)
(0.0057219 -0.00324218 -6.97956e-20)
(0.0224285 -0.0134977 1.68563e-19)
(0.0466185 -0.0261981 -8.2072e-21)
(0.0774971 -0.0380676 -9.00068e-20)
(0.113623 -0.0493462 2.11209e-21)
(0.154559 -0.0590587 6.28746e-20)
(0.199329 -0.0674968 -1.1038e-20)
(0.24755 -0.0744255 -1.07682e-19)
(0.298565 -0.0800381 1.09462e-20)
(0.351936 -0.0843364 -2.02227e-21)
(0.407201 -0.0874146 -6.97479e-21)
(0.463729 -0.0893914 -1.90331e-19)
(0.521392 -0.090209 -4.48746e-20)
(0.578808 -0.090262 -4.44147e-20)
(-0.00173178 0.00343334 -1.36176e-19)
(0.00715946 -0.00421457 2.11821e-19)
(0.0257684 -0.0150075 -2.04851e-19)
(0.0521321 -0.0282129 1.36698e-22)
(0.0853969 -0.0404343 -2.013e-20)
(0.124002 -0.0519797 -8.46505e-20)
(0.167493 -0.0618345 1.29431e-21)
(0.214844 -0.0703247 9.49956e-20)
(0.265652 -0.0772061 1.94663e-19)
(0.319221 -0.0826893 -1.01662e-19)
(0.375081 -0.0867796 6.52966e-20)
(0.432725 -0.0895797 -2.91014e-20)
(0.491477 -0.091223 1.3102e-19)
(0.551154 -0.0916444 -1.69437e-20)
(0.610324 -0.0912912 -2.14025e-20)
(-0.00152141 0.00309332 -5.64943e-20)
(0.00873551 -0.00528762 -2.52077e-19)
(0.0293476 -0.0166104 1.8699e-19)
(0.0579856 -0.0302907 1.46741e-19)
(0.0937351 -0.0428188 1.2122e-19)
(0.134912 -0.0545789 1.15626e-19)
(0.181042 -0.0645192 2.05741e-19)
(0.231045 -0.0730025 -2.74448e-19)
(0.284493 -0.0797769 -1.5733e-19)
(0.340648 -0.0850717 4.28685e-20)
(0.399001 -0.0888968 -2.70062e-20)
(0.458996 -0.0913651 -9.28694e-20)
(0.519907 -0.0926259 -6.88482e-20)
(0.58149 -0.0926091 3.17881e-21)
(0.642267 -0.0918153 5.74327e-20)
(-0.00126199 0.0026911 1.45997e-19)
(0.0104582 -0.00646049 1.88928e-19)
(0.033174 -0.018304 -7.61745e-20)
(0.0641849 -0.0324271 -1.75148e-19)
(0.102514 -0.0452147 -1.27912e-19)
(0.146349 -0.0571353 -7.33859e-20)
(0.195195 -0.067102 -1.72147e-19)
(0.24791 -0.0755179 5.08297e-20)
(0.304041 -0.0821243 6.13153e-20)
(0.362799 -0.0871712 -3.04606e-20)
(0.423633 -0.0906745 2.79841e-20)
(0.485932 -0.0927587 1.505e-21)
(0.548915 -0.0935908 1.46511e-19)
(0.612273 -0.0930977 -6.38177e-20)
(0.674484 -0.0918341 -2.84082e-20)
(-0.000948892 0.00222703 -1.70279e-19)
(0.0123356 -0.0077316 -1.50843e-19)
(0.0372558 -0.0200852 -1.99523e-19)
(0.0707358 -0.0346168 2.44392e-20)
(0.111734 -0.0476145 6.9539e-20)
(0.158309 -0.0596393 3.97863e-20)
(0.209939 -0.0695716 -1.22703e-19)
(0.265418 -0.0778581 1.13474e-19)
(0.324261 -0.0842347 -1.31234e-19)
(0.385625 -0.0889742 6.20258e-20)
(0.448912 -0.0920996 5.6148e-20)
(0.513446 -0.0937496 1.54217e-19)
(0.578396 -0.09411 2.3991e-20)
(0.643375 -0.0931078 6.18128e-20)
(0.706826 -0.0913511 -3.02598e-20)
(0.769779 -0.0878997 9.98375e-20)
(-0.000577485 0.0017018 7.56573e-20)
(0.0143759 -0.00909858 -1.32852e-20)
(0.0416009 -0.0219495 6.27408e-20)
(0.0776439 -0.0368535 -5.18748e-20)
(0.121398 -0.0500099 3.33355e-20)
(0.170787 -0.0620806 1.65608e-19)
(0.225261 -0.071916 -1.06204e-19)
(0.283546 -0.08001 -2.94184e-20)
(0.345118 -0.0860945 1.955e-19)
(0.409076 -0.0904672 -8.73137e-20)
(0.474768 -0.0931603 2.46244e-20)
(0.541453 -0.0943286 2.80131e-20)
(0.60824 -0.0941782 -1.83886e-19)
(0.674666 -0.0926397 5.78e-20)
(0.739145 -0.0903733 -2.79303e-20)
(0.802585 -0.0863736 -2.0618e-20)
(-0.000143158 0.00111652 1.18433e-19)
(0.0165871 -0.0105584 2.88066e-19)
(0.046217 -0.0238919 1.63523e-19)
(0.0849146 -0.0391298 -2.71802e-21)
(0.131506 -0.0523915 -1.24138e-19)
(0.183778 -0.0644479 -6.92875e-20)
(0.241147 -0.0741227 1.86235e-19)
(0.302269 -0.08196 -7.32645e-21)
(0.366575 -0.0876899 9.20877e-22)
(0.433099 -0.0916375 1.58131e-19)
(0.501133 -0.0938457 -9.03641e-20)
(0.569864 -0.094488 -1.00229e-19)
(0.638341 -0.0937926 1.56904e-19)
(0.70602 -0.0916969 5.75818e-20)
(0.771295 -0.0889111 1.24694e-19)
(0.834947 -0.0843759 -1.46101e-19)
(0.000358663 0.000472629 1.07644e-19)
(0.0189773 -0.0121071 -1.1412e-19)
(0.051112 -0.0259061 -9.92694e-20)
(0.0925529 -0.0414375 9.47844e-20)
(0.142058 -0.0547491 1.65562e-19)
(0.197274 -0.0667295 4.7618e-20)
(0.257583 -0.0761784 7.30699e-20)
(0.321561 -0.0836944 -1.28919e-19)
(0.388592 -0.0890074 8.50631e-20)
(0.457641 -0.0924726 -1.66388e-19)
(0.527936 -0.0941458 -1.91995e-19)
(0.59859 -0.0942218 -4.20815e-21)
(0.66859 -0.0929524 -3.98706e-20)
(0.737312 -0.0902856 -1.33556e-19)
(0.803137 -0.0869785 -5.98521e-20)
(0.866717 -0.0819301 9.58687e-20)
(0.000932491 -0.000228036 -1.1523e-19)
(0.0215542 -0.0137401 -1.47369e-19)
(0.056293 -0.0279853 8.01195e-20)
(0.100563 -0.0437673 9.54217e-20)
(0.153054 -0.0570715 -5.68358e-20)
(0.21127 -0.0689126 -1.6203e-19)
(0.274552 -0.0780695 -1.65807e-20)
(0.341395 -0.0851991 -4.55128e-20)
(0.41113 -0.0900337 -3.13235e-19)
(0.482645 -0.0929611 1.25999e-19)
(0.555104 -0.0940522 2.57934e-19)
(0.62754 -0.0935262 3.74922e-20)
(0.69888 -0.0916597 -6.01498e-20)
(0.76842 -0.088415 2.47594e-20)
(0.834538 -0.0845927 -1.3951e-19)
(0.897757 -0.0790629 -3.38692e-20)
(0.00158276 -0.000983297 -3.08013e-19)
(0.0243255 -0.0154522 1.87636e-19)
(0.0617673 -0.0301215 -1.34622e-19)
(0.10895 -0.0461091 -2.79608e-19)
(0.164493 -0.0593467 -9.4818e-20)
(0.225756 -0.0709837 4.12946e-20)
(0.292037 -0.0797818 -8.78205e-21)
(0.361742 -0.0864601 1.49768e-19)
(0.434145 -0.0907556 2.07579e-19)
(0.508055 -0.093092 2.02796e-19)
(0.582564 -0.0935578 -7.37019e-20)
(0.656625 -0.0923992 -1.2619e-19)
(0.729106 -0.0899188 2.10775e-20)
(0.799225 -0.0860974 -5.74631e-20)
(0.865371 -0.081774 5.40715e-20)
(0.927941 -0.0758036 3.45298e-20)
(0.00231381 -0.00179062 1.10403e-19)
(0.0272986 -0.0172372 -4.03278e-20)
(0.0675415 -0.0323059 2.51579e-20)
(0.117717 -0.0484519 2.39094e-19)
(0.176373 -0.0615618 7.19276e-20)
(0.240724 -0.0729289 -2.90838e-19)
(0.310018 -0.0813007 1.59842e-19)
(0.382572 -0.0874631 -1.47855e-19)
(0.457596 -0.0911606 -4.50072e-20)
(0.533812 -0.0928557 -8.80855e-20)
(0.610241 -0.092657 6.89457e-20)
(0.685754 -0.0908406 -9.82185e-20)
(0.759163 -0.0877366 -8.73959e-20)
(0.829613 -0.0833477 1.24319e-19)
(0.895517 -0.0785457 1.73881e-19)
(0.957153 -0.0721841 1.06319e-20)
(0.00312984 -0.00264714 -3.39391e-21)
(0.0304807 -0.0190885 8.72123e-20)
(0.0736217 -0.0345288 1.68699e-19)
(0.126866 -0.0507835 -8.7594e-20)
(0.188691 -0.0637033 -2.96517e-19)
(0.256163 -0.0747334 1.48416e-19)
(0.328477 -0.0826113 -3.35763e-19)
(0.403854 -0.0881941 2.01113e-19)
(0.481435 -0.0912364 9.11012e-20)
(0.559857 -0.0922434 -1.22392e-20)
(0.638061 -0.0913458 -9.4684e-20)
(0.714839 -0.0888528 2.01953e-20)
(0.788951 -0.0851226 1.40001e-19)
(0.859477 -0.0801833 -1.23768e-19)
(0.924867 -0.0749334 -9.43788e-21)
(0.985293 -0.0682379 -6.10152e-20)
(0.00403494 -0.00354964 2.13886e-19)
(0.0338784 -0.0209985 -2.43296e-20)
(0.0800139 -0.0367799 -1.18467e-19)
(0.136401 -0.0530914 -1.67132e-19)
(0.201445 -0.0657568 1.42791e-19)
(0.272062 -0.0763819 -1.56231e-19)
(0.347392 -0.0836985 1.44592e-19)
(0.425555 -0.0886392 -4.44194e-20)
(0.505618 -0.0909718 -1.89019e-19)
(0.586127 -0.0912474 -9.0586e-21)
(0.665948 -0.0896218 1.01178e-19)
(0.743792 -0.08644 2.07428e-19)
(0.818373 -0.0820888 -9.22709e-20)
(0.888714 -0.0766246 1.55079e-19)
(0.953321 -0.0709652 2.59414e-21)
(1.01227 -0.064 9.91666e-20)
(1.06291 -0.0590958 -1.00436e-19)
(0.00503301 -0.00449461 -1.81537e-19)
(0.0374981 -0.0229593 -9.84505e-20)
(0.0867231 -0.0390478 -9.13363e-20)
(0.146322 -0.0553618 3.30168e-19)
(0.214628 -0.0677071 1.75734e-19)
(0.288409 -0.077859 2.06808e-19)
(0.36674 -0.0845472 9.50335e-20)
(0.447639 -0.0887847 3.77758e-20)
(0.530097 -0.090356 1.32488e-19)
(0.612563 -0.0898615 -3.5724e-19)
(0.693827 -0.0874847 -1.17952e-20)
(0.772526 -0.0836089 -4.74669e-20)
(0.847333 -0.0786495 1.80595e-19)
(0.91723 -0.0726937 2.55005e-21)
(0.980789 -0.0666711 3.71578e-20)
(1.03802 -0.0595063 -9.74884e-20)
(1.08664 -0.0544978 3.93065e-20)
(0.0061278 -0.00547822 -1.68967e-19)
(0.041346 -0.024962 4.64698e-20)
(0.0937538 -0.0413205 2.2684e-20)
(0.156631 -0.0575804 -1.14593e-19)
(0.228236 -0.0695387 -1.19929e-19)
(0.305188 -0.0791485 -5.86982e-20)
(0.386497 -0.085142 1.31947e-19)
(0.470071 -0.0886174 6.71012e-20)
(0.554821 -0.0893793 -6.0375e-20)
(0.639101 -0.0880809 1.77885e-19)
(0.721625 -0.0849358 1.01749e-19)
(0.800956 -0.0803681 -8.81849e-21)
(0.875744 -0.0748214 -1.10209e-19)
(0.944936 -0.068415 -1.53581e-19)
(1.00719 -0.0620823 -9.34548e-20)
(1.06247 -0.0547927 3.15611e-20)
(1.10889 -0.0497398 -1.01025e-21)
(0.00732285 -0.00649635 -7.01948e-21)
(0.0454273 -0.0269973 1.77744e-21)
(0.10111 -0.0435853 1.65483e-19)
(0.167326 -0.0597321 -2.15518e-19)
(0.242262 -0.0712354 1.25344e-19)
(0.322386 -0.0802341 1.57247e-19)
(0.406637 -0.0854678 -8.65137e-20)
(0.492814 -0.0881247 4.13307e-20)
(0.579742 -0.0880329 -5.55101e-20)
(0.665679 -0.0859022 -1.07188e-20)
(0.749266 -0.0819785 4.00832e-20)
(0.829003 -0.0767285 7.0477e-20)
(0.90352 -0.0706232 -1.10056e-20)
(0.971753 -0.0638146 1.2488e-19)
(1.03247 -0.0572314 8.44892e-20)
(1.08559 -0.0498953 3.71987e-20)
(1.12963 -0.0448604 -1.04287e-20)
(0.00862149 -0.0075446 4.59167e-19)
(0.0497472 -0.0290554 -1.2857e-19)
(0.108795 -0.0458287 -2.65762e-19)
(0.178407 -0.0618014 2.23424e-19)
(0.256698 -0.0727806 -1.06036e-19)
(0.339986 -0.0810994 -3.25346e-20)
(0.427134 -0.0855096 2.88706e-20)
(0.515829 -0.0872945 2.35216e-20)
(0.604807 -0.0863093 3.61406e-20)
(0.692234 -0.0833237 -7.84559e-20)
(0.776679 -0.0786181 -1.10934e-20)
(0.856588 -0.0727031 -2.60811e-19)
(0.930586 -0.0660756 -5.70112e-20)
(0.997612 -0.0589201 -4.86544e-20)
(1.05655 -0.0521513 -1.68644e-20)
(1.10733 -0.0448493 2.62815e-20)
(1.14887 -0.0398968 -6.91099e-21)
(0.0100268 -0.00861832 -3.78419e-19)
(0.0543101 -0.0311258 3.54839e-20)
(0.11681 -0.0480368 1.63262e-19)
(0.189872 -0.063772 -1.53696e-19)
(0.271534 -0.0741571 -1.36774e-19)
(0.357969 -0.0817278 -1.96541e-19)
(0.447958 -0.085253 -8.68771e-20)
(0.539075 -0.0861156 -2.1036e-19)
(0.629966 -0.0842023 -1.98017e-20)
(0.718703 -0.0803454 6.99133e-20)
(0.803793 -0.0748618 -2.0259e-19)
(0.883636 -0.0683069 9.12554e-20)
(0.956867 -0.0612011 -3.92292e-20)
(1.02245 -0.05376 -9.35197e-20)
(1.07941 -0.0468753 -1.20433e-19)
(1.12769 -0.0396888 1.14316e-20)
(1.1666 -0.0348838 4.69551e-20)
(0.0115417 -0.00971258 3.24603e-19)
(0.0591198 -0.0331976 8.14298e-20)
(0.125157 -0.0501949 1.50636e-19)
(0.201716 -0.0656271 1.24263e-19)
(0.286761 -0.0753478 3.62069e-19)
(0.376316 -0.0821029 1.64468e-19)
(0.46908 -0.0846836 -3.14127e-20)
(0.562511 -0.0845778 8.55375e-20)
(0.655165 -0.0817067 -1.01138e-19)
(0.745024 -0.076969 1.79267e-19)
(0.830538 -0.0707189 9.10117e-20)
(0.910077 -0.0635567 2.04195e-20)
(0.9823 -0.0560236 1.55372e-19)
(1.04621 -0.0483636 2.95464e-20)
(1.101 -0.0414362 9.4573e-20)
(1.14665 -0.0344463 -1.46122e-19)
(1.18287 -0.0298539 -1.13859e-19)
(1.21086 -0.022821 1.26027e-21)
(0.0131688 -0.0108222 -4.11518e-19)
(0.0641795 -0.0352592 1.17962e-20)
(0.133838 -0.0522879 -1.82204e-19)
(0.213935 -0.0673498 1.63951e-20)
(0.302366 -0.0763352 -4.55851e-19)
(0.395005 -0.0822083 2.2467e-20)
(0.490469 -0.0837879 2.94311e-20)
(0.586095 -0.0826717 -2.07268e-20)
(0.680351 -0.0788193 6.34347e-20)
(0.771136 -0.073198 -1.71263e-20)
(0.85685 -0.0662005 4.70672e-20)
(0.935846 -0.0584711 2.5328e-20)
(1.00683 -0.0505682 -4.03755e-20)
(1.06886 -0.0427605 -1.28004e-20)
(1.1213 -0.0358664 -4.84147e-20)
(1.16422 -0.0291527 1.49783e-19)
(1.19769 -0.0248369 5.86791e-20)
(1.22267 -0.0185336 5.92273e-20)
(0.0149103 -0.0119419 3.25563e-19)
(0.0694918 -0.037299 -1.97477e-19)
(0.14285 -0.0543004 1.75902e-20)
(0.226524 -0.0689225 -2.03709e-19)
(0.318335 -0.0771018 5.13582e-19)
(0.414016 -0.082028 1.81378e-19)
(0.512091 -0.0825531 -2.86355e-19)
(0.609783 -0.0803893 -6.67842e-20)
(0.705472 -0.0755381 1.12351e-21)
(0.796978 -0.0690377 1.25412e-20)
(0.882664 -0.0613195 -1.20436e-19)
(0.960882 -0.0530702 4.62452e-20)
(1.03039 -0.044861 1.20182e-19)
(1.09036 -0.0369805 1.81145e-19)
(1.14031 -0.0301972 5.19118e-20)
(1.18042 -0.0238363 -4.8357e-20)
(1.21111 -0.0198597 -2.02944e-20)
(1.23317 -0.0143511 -7.77275e-20)
(0.0167684 -0.0130661 8.81386e-20)
(0.0750585 -0.0393046 3.0912e-19)
(0.152193 -0.0562164 -9.80829e-20)
(0.239475 -0.0703275 9.24228e-20)
(0.334654 -0.07763 -1.98615e-19)
(0.433322 -0.0815462 -6.93916e-20)
(0.533912 -0.080967 2.01902e-19)
(0.633531 -0.0777236 1.69088e-20)
(0.730474 -0.0718627 8.92966e-20)
(0.822491 -0.0644952 -4.13743e-20)
(0.907921 -0.0560905 6.84244e-20)
(0.98513 -0.0473755 -3.5733e-20)
(1.05296 -0.0389288 -5.34435e-20)
(1.11069 -0.031053 -1.87076e-19)
(1.15802 -0.0244583 -1.0184e-19)
(1.19527 -0.0185232 -4.25257e-20)
(1.22318 -0.0149466 7.03233e-21)
(1.24244 -0.0102842 5.73834e-20)
(0.018745 -0.0141892 -3.85846e-19)
(0.080881 -0.0412637 -5.85282e-20)
(0.161864 -0.0580198 9.59395e-20)
(0.25278 -0.0715473 -9.74159e-20)
(0.351308 -0.0779027 -1.22087e-19)
(0.4529 -0.0807481 -2.30463e-19)
(0.555897 -0.0790188 -2.135e-19)
(0.657294 -0.0746693 1.91744e-19)
(0.755304 -0.0677947 6.54777e-20)
(0.847618 -0.0595794 -2.10944e-19)
(0.932563 -0.0505299 -5.42638e-20)
(1.00854 -0.0414097 -1.56262e-19)
(1.07449 -0.0327987 -7.46776e-20)
(1.12982 -0.0250068 1.82443e-19)
(1.17444 -0.0186779 9.91254e-20)
(1.20882 -0.0132369 -8.78887e-20)
(1.23397 -0.0101189 -6.98477e-21)
(1.25056 -0.00633714 -5.48502e-20)
(1.26203 -0.00700121 8.16066e-20)
(0.0208414 -0.0153052 2.65097e-19)
(0.0869595 -0.0431635 -5.04055e-20)
(0.17186 -0.0596942 2.10677e-19)
(0.266429 -0.072564 2.08997e-19)
(0.368277 -0.0779027 1.75632e-19)
(0.472722 -0.0796191 1.07348e-19)
(0.578009 -0.0766983 2.86462e-19)
(0.681026 -0.0712223 -1.30548e-19)
(0.77991 -0.063337 -1.2862e-20)
(0.872304 -0.0543009 2.59432e-19)
(0.956538 -0.0446554 1.16906e-19)
(1.03107 -0.035196 2.93533e-19)
(1.09496 -0.0264976 1.70375e-20)
(1.14776 -0.0188695 -1.66168e-19)
(1.1896 -0.0128824 -5.60132e-20)
(1.22109 -0.0079984 1.74655e-19)
(1.24353 -0.00539438 2.46434e-20)
(1.2576 -0.00251169 7.09211e-20)
(1.26708 -0.00323083 -9.667e-21)
(0.0230587 -0.0164081 -1.92902e-19)
(0.0932934 -0.0449907 -8.8766e-21)
(0.182176 -0.0612229 -2.78355e-19)
(0.280411 -0.0733596 -2.22425e-20)
(0.385543 -0.0776133 1.14574e-19)
(0.492759 -0.0781454 -1.02564e-20)
(0.600211 -0.0739965 -4.40856e-20)
(0.704681 -0.0673799 -1.7414e-19)
(0.80424 -0.0584943 -4.45489e-20)
(0.896495 -0.0486719 -2.66578e-19)
(0.979798 -0.038486 -3.66993e-20)
(1.05268 -0.0287589 -2.01366e-19)
(1.11434 -0.0200527 3.16392e-20)
(1.16449 -0.0126681 2.49989e-20)
(1.2035 -0.00709571 3.93884e-20)
(1.23214 -0.00282596 -1.45175e-19)
(1.25194 -0.000787199 -6.022e-20)
(1.26364 0.00119286 3.16102e-20)
(1.27116 0.000298966 -6.99832e-20)
(0.0253976 -0.0174915 2.70325e-19)
(0.0998815 -0.0467321 -9.03052e-20)
(0.192805 -0.0625891 8.611e-20)
(0.294713 -0.0739165 5.73354e-20)
(0.403085 -0.0770182 -3.51238e-19)
(0.512982 -0.0763141 -1.77898e-19)
(0.622463 -0.070906 2.91681e-20)
(0.728214 -0.0631412 1.14239e-19)
(0.828244 -0.0532732 -5.98686e-20)
(0.920141 -0.0427063 3.60781e-19)
(1.0023 -0.032042 1.26945e-19)
(1.07334 -0.0221228 1.31358e-19)
(1.13262 -0.0134903 -1.25211e-20)
(1.18005 -0.00642763 -2.59385e-20)
(1.21619 -0.00133986 -9.31863e-20)
(1.24201 0.0022647 5.33328e-21)
(1.25926 0.00369207 1.14503e-19)
(1.26876 0.00477676 -1.00265e-19)
(1.27441 0.00360244 6.23507e-20)
(0.0278585 -0.0185491 -2.12944e-19)
(0.106722 -0.0483741 2.19674e-19)
(0.203741 -0.0637761 -1.61238e-19)
(0.309321 -0.0742172 -2.28864e-19)
(0.420881 -0.0761017 1.37715e-19)
(0.533361 -0.0741134 1.89383e-19)
(0.644727 -0.0674204 9.97589e-20)
(0.751578 -0.0585068 7.72748e-21)
(0.851873 -0.0476817 9.07514e-21)
(0.943196 -0.0364193 -3.26791e-19)
(1.024 -0.0253445 -2.22628e-19)
(1.09302 -0.0153124 -9.57459e-20)
(1.1498 -0.00683605 -9.90929e-20)
(1.19442 -0.000171872 -1.67018e-20)
(1.2277 0.00436567 -4.60509e-20)
(1.25078 0.00726032 -9.69129e-21)
(1.26557 0.00803606 -4.23606e-20)
(1.27302 0.00823939 8.65741e-20)
(1.27693 0.00669552 -1.12185e-19)
(1.27401 0.00496755 1.87236e-20)
(0.0304414 -0.0195747 -1.92838e-19)
(0.113811 -0.0499033 -3.88701e-19)
(0.214976 -0.0647673 4.03408e-20)
(0.324221 -0.0742446 1.66182e-19)
(0.438906 -0.074849 1.11344e-19)
(0.553861 -0.0715325 3.74912e-20)
(0.666963 -0.0635349 -2.75027e-19)
(0.774728 -0.053479 -3.2394e-20)
(0.875078 -0.0417296 -3.49858e-20)
(0.965614 -0.0298276 8.37003e-20)
(1.04486 -0.0184153 2.11856e-19)
(1.11171 -0.00835264 -7.09939e-20)
(1.16586 -0.000114808 5.14496e-20)
(1.20765 0.00607726 1.53788e-19)
(1.23808 0.0100037 1.84834e-19)
(1.25848 0.01215 9.05672e-20)
(1.27093 0.0122401 9.91144e-20)
(1.27649 0.0115803 -4.06889e-21)
(1.2788 0.00959492 1.70201e-19)
(1.27522 0.00688247 -3.79553e-20)
(0.0331461 -0.0205616 3.84006e-21)
(0.121145 -0.0513061 -4.23701e-21)
(0.226499 -0.0655462 5.842e-20)
(0.339394 -0.0739822 3.03363e-20)
(0.457137 -0.0732458 -1.34077e-19)
(0.574451 -0.0685618 -1.70914e-19)
(0.689129 -0.0592463 3.49857e-19)
(0.797618 -0.0480618 -3.99273e-20)
(0.897816 -0.0354283 -9.93969e-20)
(0.987356 -0.022949 1.31096e-21)
(1.06486 -0.011277 -2.51152e-19)
(1.12938 -0.0012678 1.05326e-19)
(1.18083 0.00664985 -9.22671e-22)
(1.21974 0.0122997 -1.16151e-20)
(1.24736 0.0155593 -7.6159e-20)
(1.26519 0.0169252 -1.59859e-19)
(1.27542 0.016302 -9.91313e-20)
(1.27924 0.0147997 -1.99832e-20)
(1.2801 0.012317 -1.11701e-19)
(1.27595 0.00877157 4.35567e-20)
(0.0359718 -0.0215035 1.82644e-19)
(0.12872 -0.0525691 4.94465e-19)
(0.238299 -0.0660966 2.14003e-19)
(0.354824 -0.0734139 1.19643e-19)
(0.475547 -0.0712791 1.43122e-19)
(0.595096 -0.065193 3.89046e-20)
(0.711185 -0.0545527 -1.26345e-19)
(0.820203 -0.0422608 1.44429e-19)
(0.920041 -0.0287906 3.89378e-20)
(1.00838 -0.0158024 8.31794e-20)
(1.08398 -0.00395234 1.23821e-19)
(1.14604 0.00591812 -1.44584e-19)
(1.19471 0.0134356 9.90344e-20)
(1.23075 0.0184771 -7.31074e-20)
(1.25561 0.02102 -6.88264e-20)
(1.27097 0.0215793 9.33979e-20)
(1.2791 0.0202215 6.5306e-21)
(1.28133 0.0178988 -1.03259e-20)
(1.28088 0.0148774 2.6341e-20)
(1.27624 0.0106117 2.76237e-20)
(0.0389174 -0.0223936 2.20105e-19)
(0.136529 -0.0536787 -1.6363e-19)
(0.250366 -0.0664025 -1.37896e-19)
(0.370489 -0.0725242 -3.56847e-19)
(0.494108 -0.0689366 -1.75615e-19)
(0.615761 -0.0614192 5.53522e-20)
(0.733091 -0.0494541 -9.80754e-20)
(0.842442 -0.0360831 -1.32114e-20)
(0.941712 -0.0218307 1.19948e-20)
(1.02866 -0.00840755 -1.68833e-19)
(1.10218 0.00353576 -1.9658e-19)
(1.16167 0.0131818 1.89321e-19)
(1.20751 0.0202216 -1.41892e-19)
(1.24069 0.0245934 9.06005e-20)
(1.26287 0.0263754 1.16106e-19)
(1.27587 0.0261077 -3.1829e-20)
(1.28205 0.0239999 6.27831e-20)
(1.28283 0.0208796 4.48897e-20)
(1.28122 0.0172901 -1.31173e-20)
(1.27616 0.012388 4.04469e-20)
(0.0419814 -0.0232255 -2.59536e-19)
(0.144566 -0.0546217 -2.31642e-19)
(0.262685 -0.0664484 -1.1864e-19)
(0.386371 -0.0712985 1.79706e-19)
(0.512791 -0.0662071 -1.50214e-19)
(0.63641 -0.0572349 -1.5186e-19)
(0.754804 -0.0439519 1.16491e-19)
(0.86429 -0.0295376 5.09187e-20)
(0.962791 -0.0145642 1.67773e-19)
(1.04816 -0.000784901 2.71898e-19)
(1.11945 0.0111644 1.24856e-19)
(1.17629 0.0205009 -2.16298e-19)
(1.21927 0.0269885 1.03635e-19)
(1.24961 0.0306341 -1.44827e-19)
(1.26918 0.0316169 -8.47173e-22)
(1.27995 0.0305074 1.32944e-19)
(1.28432 0.02764 -3.65658e-20)
(1.28379 0.0237452 -5.82958e-21)
(1.28115 0.0195682 -1.17693e-20)
(1.27573 0.0140915 -8.70732e-20)
(0.0451619 -0.0239926 3.3401e-19)
(0.152823 -0.0553848 1.75452e-19)
(0.275242 -0.0662192 4.5253e-20)
(0.402445 -0.0697227 9.48691e-20)
(0.531567 -0.0630809 1.49134e-19)
(0.657006 -0.052636 1.49863e-19)
(0.776285 -0.0380492 -1.61135e-19)
(0.885708 -0.0226346 1.18239e-20)
(0.983242 -0.00700776 -1.03621e-19)
(1.06686 0.00704452 2.71477e-20)
(1.13579 0.0189109 -1.24983e-19)
(1.18989 0.0278539 -1.51739e-20)
(1.23 0.0337185 -7.65214e-21)
(1.25756 0.0365869 1.64758e-20)
(1.27462 0.0367383 -1.44071e-19)
(1.28327 0.0347773 -1.78927e-19)
(1.28597 0.0311454 -3.94721e-20)
(1.28427 0.0264991 -5.32699e-20)
(1.28073 0.0217235 -2.8555e-20)
(1.275 0.0157173 -2.15775e-20)
(0.0484566 -0.0246883 -1.38274e-19)
(0.161293 -0.0559552 4.31985e-20)
(0.288022 -0.0657004 2.15088e-19)
(0.41869 -0.0677841 -2.6002e-19)
(0.550404 -0.0595493 1.08567e-19)
(0.677513 -0.0476201 -2.96844e-19)
(0.797493 -0.0317506 7.94438e-20)
(0.906655 -0.015386 -5.65158e-20)
(1.00303 0.000820959 6.11113e-20)
(1.08473 0.0150593 8.94787e-20)