/*--------------------------------*- C++ -*----------------------------------*\
  =========                 |
  \\      /  F ield         | OpenFOAM: The Open Source CFD Toolbox
   \\    /   O peration     | Website:  https://openfoam.org
    \\  /    A nd           | Version:  7
     \\/     M anipulation  |
\*---------------------------------------------------------------------------*/
FoamFile
{
    version     2.0;
    format      ascii;
    class       surfaceScalarField;
    location    "10";
    object      phi;
}
// * * * * * * * * * * * * * * * * * * * * * * * * * * * * * * * * * * * * * //

dimensions      [0 3 -1 0 0 0 0];

internalField   nonuniform List<scalar> 
5120
(
-0.00104403
2.88317e-09
3.00545e-09
-0.00104403
0.000257417
-0.00131878
0.000274755
-0.00160922
0.000290448
-0.00191543
0.000306204
-0.00223823
0.000322811
-0.00257906
0.000340831
-0.0029395
0.000360442
-0.00332128
0.000381781
-0.00372617
0.000404891
-0.004156
0.000429838
-0.00461268
0.000456681
-0.00509817
0.000485484
-0.00561452
0.000516356
-0.00616376
0.000549242
0.000584583
-0.00674835
-0.00104337
0.000514713
-0.00131801
0.000549394
-0.00160835
0.000580784
-0.00191444
0.000612294
-0.00223713
0.000645505
-0.00257784
0.000681539
-0.00293815
0.000720754
-0.00331979
0.000763425
-0.00372454
0.000809635
-0.00415422
0.000859518
-0.00461073
0.000913192
-0.00509603
0.000970781
-0.00561218
0.00103251
-0.0061612
0.00109826
0.00116893
-0.00674554
-0.00104206
0.000771773
-0.00131647
0.000823808
-0.00160659
0.000870898
-0.00191246
0.000918162
-0.00223492
0.00096797
-0.00257539
0.00102201
-0.00293545
0.00108081
-0.00331682
0.0011448
-0.00372128
0.00121409
-0.00415065
0.00128889
-0.00460682
0.00136936
-0.00509175
0.00145571
-0.0056075
0.00154826
-0.00615607
0.00164684
0.00175279
-0.00673993
-0.00104009
0.00102848
-0.00131417
0.00109788
-0.00160395
0.00116068
-0.00190949
0.0012237
-0.00223161
0.00129009
-0.00257172
0.00136212
-0.0029314
0.00144049
-0.00331237
0.00152577
-0.00371639
0.00161811
-0.00414529
0.00171779
-0.00460096
0.00182503
-0.00508533
0.00194008
-0.00560047
0.0020634
-0.00614838
0.00219475
0.00233592
-0.00673152
-0.00103747
0.00128471
-0.00131109
0.00137151
-0.00160043
0.00145003
-0.00190553
0.00152879
-0.00222719
0.00161176
-0.00256682
0.00170175
-0.002926
0.00179967
-0.00330643
0.0019062
-0.00370988
0.00202156
-0.00413816
0.00214607
-0.00459315
0.00228002
-0.00507678
0.00242372
-0.00559112
0.00257773
-0.00613814
0.00274178
0.0029181
-0.00672032
-0.00103419
-0.00130725
0.00164457
-0.00159604
0.00173882
-0.00190058
0.00183333
-0.00222168
0.00193285
-0.00256071
0.00204079
-0.00291926
0.00215821
-0.00329902
0.00228596
-0.00370174
0.00242428
-0.00412924
0.00257357
-0.00458339
0.00273416
-0.00506611
0.00290644
-0.00557944
0.00309106
-0.00612536
0.0032877
0.00349908
-0.00670633
-0.00130264
0.00191695
-0.00159078
0.00202695
-0.00189465
0.0021372
-0.00221506
0.00225327
-0.00255338
0.00237911
-0.00291117
0.002516
-0.00329012
0.00266492
-0.00369199
0.00282614
-0.00411856
0.00300014
-0.0045717
0.0031873
-0.00505331
0.00338806
-0.00556544
0.00360318
-0.00611004
0.00383231
0.00407862
-0.00668958
-0.00129727
0.00218855
-0.00158463
0.00231431
-0.00188773
0.0024403
-0.00220735
0.00257288
-0.00254483
0.00271659
-0.00290174
0.00287291
-0.00327976
0.00304294
-0.00368062
0.003227
-0.00410611
0.00342563
-0.00455807
0.00363926
-0.00503841
0.00386839
-0.00554913
0.00411391
-0.0060922
0.00437538
0.00465649
-0.00667008
-0.00129114
0.00245924
-0.00157762
0.00260079
-0.00187984
0.00274251
-0.00219854
0.00289158
-0.00253507
0.00305313
-0.00289098
0.00322881
-0.00326793
0.00341988
-0.00366764
0.00362672
-0.00409189
0.00384988
-0.00454252
0.00408989
-0.0050214
0.00434728
-0.00553054
0.00462304
-0.00607186
0.0049167
0.00523247
-0.00664784
-0.00128425
0.00272892
-0.00156974
0.00288629
-0.00187096
0.00304373
-0.00218864
0.00320926
-0.00252411
0.0033886
-0.00287888
0.00358359
-0.00325463
0.00379563
-0.00365306
0.00402514
-0.00407593
0.00427276
-0.00452506
0.00453902
-0.00500231
0.00482453
-0.00550966
0.00513039
-0.00604903
0.00545608
0.00580632
-0.00662289
-0.0012766
0.00299747
-0.001561
0.00317068
-0.00186111
0.00334384
-0.00217766
0.00352581
-0.00251194
0.00372288
-0.00286546
0.00393711
-0.00323988
0.00417005
-0.00363688
0.00442215
-0.00405822
0.0046941
-0.00450569
0.00498649
-0.00498114
0.00529998
-0.00548652
0.00563577
-0.00602374
0.0059933
0.00637782
-0.00659524
-0.0012682
0.00326479
-0.00155139
0.00345386
-0.00185029
0.00364274
-0.00216559
0.00384111
-0.00249857
0.00405585
-0.00285072
0.00428926
-0.00322367
0.00454301
-0.00361912
0.00481759
-0.00403878
0.00511376
-0.00448444
0.00543215
-0.00495791
0.00577345
-0.00546113
0.00613899
-0.005996
0.00652816
0.00694675
-0.00656493
-0.00125905
0.00353075
-0.00154092
0.00373573
-0.0018385
0.00394032
-0.00215244
0.00415505
-0.002484
0.00438742
-0.00283466
0.00463992
-0.00320603
0.00491438
-0.00359978
0.00521134
-0.00401762
0.0055316
-0.0044613
0.00587583
-0.00493263
0.00624478
-0.00543352
0.00663987
-0.00596583
0.00706047
0.00751291
-0.00653198
-0.00124915
0.00379525
-0.00152959
0.00401617
-0.00182574
0.00423647
-0.00213822
0.00446752
-0.00246824
0.00471745
-0.00281729
0.00498896
-0.00318694
0.00528404
-0.00357886
0.00560326
-0.00399474
0.00594747
-0.0044363
0.00631739
-0.00490533
0.00671381
-0.0054037
0.00713825
-0.00593326
0.00759004
0.00807607
-0.00649642
-0.00123851
0.00405817
-0.00151742
0.00429507
-0.00181203
0.00453107
-0.00212292
0.00477842
-0.00245131
0.00504583
-0.00279861
0.00533627
-0.00316643
0.00565185
-0.00355639
0.00599321
-0.00397015
0.00636124
-0.00440944
0.00675668
-0.00487601
0.00718038
-0.00537169
0.00763393
-0.00589832
0.00811667
0.00863602
-0.00645828
-0.00122713
0.0043194
-0.0015044
0.00457233
-0.00179736
0.00482404
-0.00210656
0.00508763
-0.00243319
0.00537245
-0.00277865
0.00568172
-0.0031445
0.00601771
-0.00353236
0.00638107
-0.00394388
0.00677276
-0.00438075
0.00719355
-0.00484469
0.00764432
-0.00533752
0.00812676
-0.00586104
0.00864019
0.00919258
-0.0064176
-0.00121502
0.00457884
-0.00149053
0.00484784
-0.00178174
0.00511524
-0.00208915
0.00539504
-0.0024139
0.00569721
-0.00275739
0.00602521
-0.00312115
0.00638147
-0.00350679
0.00676671
-0.00391593
0.0071819
-0.00435023
0.00762785
-0.0048114
0.00810548
-0.00530121
0.00861657
-0.00582144
0.00916042
0.00974555
-0.0063744
-0.00120218
0.00483636
-0.00147583
0.00512149
-0.00176517
0.00540459
-0.00207068
0.00570054
-0.00239345
0.00601998
-0.00273485
0.00636661
-0.00309641
0.00674303
-0.00347969
0.00715
-0.00388632
0.00758853
-0.00431791
0.00805945
-0.00477615
0.00856372
-0.00526278
0.0091032
-0.00577955
0.00967719
0.0102947
-0.00632873
-0.00118861
0.00509186
-0.00146029
0.00539318
-0.00174767
0.00569197
-0.00205116
0.00600404
-0.00237184
0.00634066
-0.00271104
0.00670581
-0.00307027
0.00710226
-0.00345108
0.0075308
-0.00385506
0.0079925
-0.00428381
0.0084882
-0.00473897
0.00901889
-0.00522226
0.00958649
-0.0057354
0.0101903
0.0108399
-0.00628061
-0.00117432
0.00534522
-0.00144393
0.00566279
-0.00172923
0.00597728
-0.00203061
0.00630541
-0.00234908
0.00665913
-0.00268597
0.0070427
-0.00304275
0.00745905
-0.00342096
0.00790901
-0.00382216
0.0083937
-0.00424793
0.00891396
-0.00469988
0.00947084
-0.00517968
0.0100663
-0.00568903
0.0106997
0.011381
-0.00623009
-0.00115932
0.00559633
-0.00142674
0.00593021
-0.00170987
0.00626041
-0.00200902
0.00660456
-0.00232518
0.00697529
-0.00265964
0.00737716
-0.00301386
0.00781327
-0.00338935
0.00828449
-0.00378764
0.00879199
-0.00421029
0.00933662
-0.00465889
0.00991944
-0.00513506
0.0105425
-0.00564047
0.0112051
0.0119177
-0.0061772
-0.00114361
0.00584509
-0.00140874
0.00619535
-0.00168959
0.00654125
-0.00198641
0.00690138
-0.00230015
0.00728903
-0.00263207
0.00770908
-0.00298361
0.0081648
-0.00335625
0.00865714
-0.00375151
0.00918726
-0.00417092
0.00975603
-0.00461604
0.0103646
-0.00508843
0.0110148
-0.00558975
0.0117064
0.0124499
-0.00612199
-0.00112719
-0.00138993
0.00645809
-0.00166839
0.00681971
-0.00196277
0.00719576
-0.00227399
0.00760025
-0.00260326
0.00803836
-0.00295201
0.00851355
-0.00332169
0.00902681
-0.0037138
0.00957937
-0.00412984
0.0101721
-0.00457133
0.010806
-0.00503981
0.0114833
-0.00553691
0.0122035
0.0129775
-0.00606448
-0.00137032
0.00671832
-0.00164629
0.00709567
-0.00193813
0.0074876
-0.00224671
0.00790884
-0.00257323
0.00836488
-0.00291907
0.00885939
-0.00328567
0.00939342
-0.00367451
0.0099682
-0.00408706
0.0105846
-0.00452481
0.0112438
-0.00498924
0.0119478
-0.00548197
0.0126963
0.0135003
-0.00600472
-0.00134992
0.00697595
-0.00162329
0.00736904
-0.00191249
0.0077768
-0.00221833
0.00821468
-0.00254199
0.00868853
-0.00288481
0.00920221
-0.00324822
0.00975682
-0.00363367
0.0103537
-0.0040426
0.0109935
-0.00447648
0.0116777
-0.00493673
0.012408
-0.00542497
0.0131845
0.014018
-0.00594274
-0.00132873
0.00723085
-0.00159939
0.00763971
-0.00188585
0.00806326
-0.00218885
0.00851769
-0.00250954
0.00900921
-0.00284923
0.00954191
-0.00320934
0.0101169
-0.00359128
0.0107356
-0.00399648
0.0113987
-0.00442637
0.0121076
-0.00488233
0.012864
-0.00536595
0.0136681
0.0145307
-0.00587858
-0.00130675
0.00748294
-0.00157462
0.00790757
-0.00185823
0.00834687
-0.00215829
0.00881775
-0.00247589
0.00932682
-0.00281235
0.00987837
-0.00316904
0.0104736
-0.00354737
0.0111139
-0.00394872
0.0118001
-0.00437451
0.0125334
-0.00482605
0.0133155
-0.00530494
0.014147
0.015038
-0.00581228
-0.00128401
0.00773209
-0.00154897
0.00817253
-0.00182963
0.00862752
-0.00212664
0.00911476
-0.00244107
0.00964125
-0.00277419
0.0102115
-0.00312735
0.0108268
-0.00350194
0.0114885
-0.00389934
0.0121975
-0.00432091
0.0129549
-0.00476793
0.0137625
-0.00524196
0.014621
0.0155399
-0.00574385
-0.0012605
0.00797821
-0.00152245
0.00843448
-0.00180006
0.00890513
-0.00209393
0.00940863
-0.00240507
0.00995239
-0.00273474
0.0105412
-0.00308427
0.0111763
-0.00345503
0.0118593
-0.00384835
0.0125908
-0.00426561
0.0133722
-0.00470798
0.0142049
-0.00517706
0.0150901
0.0160362
-0.00567334
-0.00123624
0.00822118
-0.00149508
0.00869332
-0.00176954
0.00917959
-0.00206016
0.00969925
-0.00236792
0.0102601
-0.00269404
0.0108673
-0.00303983
0.0115221
-0.00340664
0.0122261
-0.00379579
0.01298
-0.00420861
0.013785
-0.00464624
0.0146425
-0.00511026
0.0155541
0.0165267
-0.00560077
-0.00121123
0.00846091
-0.00146686
0.00894895
-0.00173807
0.0094508
-0.00202534
0.00998653
-0.00232962
0.0105644
-0.00265208
0.0111897
-0.00299403
0.011864
-0.00335679
0.0125888
-0.00374166
0.0133648
-0.00414995
0.0141933
-0.00458272
0.0150753
-0.00504159
0.016013
0.0170113
-0.00552616
-0.00118549
-0.0014378
0.00920126
-0.00170566
0.00971866
-0.00198949
0.0102704
-0.00229018
0.0108651
-0.00260889
0.0115084
-0.00294689
0.012202
-0.0033055
0.0129475
-0.00368598
0.0137453
-0.00408964
0.014597
-0.00451747
0.0155031
-0.00497109
0.0164666
0.0174897
-0.00544952
-0.00140792
0.00945016
-0.00167233
0.00998307
-0.00195262
0.0105506
-0.00224962
0.0111621
-0.00256447
0.0118233
-0.00289843
0.012536
-0.00325278
0.0133018
-0.00362877
0.0141213
-0.00402771
0.0149959
-0.00445049
0.0159259
-0.00489877
0.0169149
0.0179618
-0.00537088
-0.00137722
0.00969554
-0.00163808
0.0102439
-0.00191473
0.0108273
-0.00220795
0.0114553
-0.00251885
0.0121342
-0.00284865
0.0128658
-0.00319865
0.0136518
-0.00357006
0.0144927
-0.00396417
0.01539
-0.00438181
0.0163435
-0.00482468
0.0173578
0.0184274
-0.00529023
-0.00134571
0.0099373
-0.00160293
0.0105012
-0.00187584
0.0111002
-0.00216518
0.0117447
-0.00247203
0.0124411
-0.00279759
0.0131914
-0.00314312
0.0139973
-0.00350985
0.0148594
-0.00389904
0.0157792
-0.00431147
0.016756
-0.00474884
0.0177951
0.0188861
-0.00520759
-0.0013134
0.0101753
-0.00156688
0.0107546
-0.00183596
0.0113693
-0.00212132
0.01203
-0.00242402
0.0127438
-0.00274524
0.0135126
-0.00308622
0.0143383
-0.00344817
0.0152214
-0.00383234
0.0161634
-0.00423948
0.0171631
-0.00467128
0.018227
0.0193378
-0.00512297
-0.00128031
0.0104096
-0.00152995
0.0110043
-0.0017951
0.0116344
-0.0020764
0.0123113
-0.00237485
0.0130422
-0.00269163
0.0138294
-0.00302796
0.0146746
-0.00338503
0.0155785
-0.0037641
0.0165425
-0.00416587
0.0175649
-0.00459206
0.0186531
0.0197822
-0.00503643
-0.00124644
-0.00149216
0.01125
-0.00175328
0.0118955
-0.00203041
0.0125885
-0.00232453
0.0133363
-0.00263676
0.0141416
-0.00296834
0.0150062
-0.00332045
0.0159306
-0.00369432
0.0169163
-0.00409066
0.0179612
-0.00451121
0.0190737
0.020219
-0.004948
-0.0014535
0.0114917
-0.00171051
0.0121525
-0.00198338
0.0128613
-0.00227306
0.013626
-0.00258067
0.0144492
-0.0029074
0.015333
-0.00325445
0.0162776
-0.00362303
0.0172849
-0.0040139
0.0183521
-0.0044287
0.0194885
0.0206479
-0.00485765
-0.001414
0.0117292
-0.00166679
0.0124053
-0.00193532
0.0131299
-0.00222047
0.0139112
-0.00252335
0.0147521
-0.00284515
0.0156548
-0.00318704
0.0166195
-0.00355025
0.0176481
-0.00393559
0.0187374
-0.0043444
0.0198973
0.0210715
-0.00476798
-0.00137367
0.0119626
-0.00162216
0.0126538
-0.00188624
0.0133939
-0.00216676
0.0141917
-0.00246482
0.0150501
-0.00278157
0.0159715
-0.00311821
0.0169562
-0.00347595
0.0180059
-0.00385568
0.0191171
-0.00425991
0.0203015
0.0215051
-0.0046935
-0.00133252
0.0121916
-0.00157661
0.0128979
-0.00183616
0.0136535
-0.00211197
0.0144675
-0.00240511
0.0153433
-0.00271674
0.0162831
-0.00304804
0.0172875
-0.00340024
0.0183581
-0.00377431
0.0194912
-0.00417222
0.0206994
0.0219338
-0.00460091
-0.00129056
-0.00153016
0.0131375
-0.00178508
0.0139084
-0.00205609
0.0147385
-0.00234423
0.0156314
-0.00265065
0.0165896
-0.00297652
0.0176133
-0.00332309
0.0187046
-0.00369145
0.0198596
-0.00408328
0.0210913
0.0223562
-0.00450575
-0.00148283
0.0133725
-0.00173303
0.0141586
-0.00199915
0.0150046
-0.00228219
0.0159144
-0.0025833
0.0168907
-0.00290367
0.0179337
-0.00324452
0.0190455
-0.00360711
0.0202221
-0.00399299
0.0214772
0.0227721
-0.00440889
-0.00143463
0.0136029
-0.00168002
0.014404
-0.00194116
0.0152658
-0.00221901
0.0161923
-0.00251473
0.0171864
-0.0028295
0.0182485
-0.00316457
0.0193806
-0.00352131
0.0205789
-0.00390122
0.0218571
0.0231814
-0.00431045
-0.00138557
0.0138285
-0.00162607
0.0146445
-0.00188213
0.0155218
-0.00215471
0.0164649
-0.00244494
0.0174766
-0.00275403
0.0185575
-0.00308324
0.0197098
-0.00343406
0.0209297
-0.00380794
0.022231
0.0235839
-0.00421044
-0.00133567
-0.00157119
0.01488
-0.00182209
0.0157727
-0.0020893
0.0167321
-0.00237396
0.0177613
-0.00267728
0.0188609
-0.00300055
0.020033
-0.00334537
0.0212745
-0.00371313
0.0225987
0.0239796
-0.00410891
-0.00151539
0.0151105
-0.00176104
0.0160184
-0.0020228
0.0169939
-0.00230179
0.0180403
-0.00259926
0.0191583
-0.00291652
0.0203503
-0.00325525
0.0216132
-0.0036168
0.0229603
0.0243687
-0.00400585
-0.00145869
0.0153358
-0.001699
0.0162587
-0.00195522
0.0172501
-0.00222847
0.0183135
-0.00251999
0.0194499
-0.00283116
0.0206615
-0.0031637
0.0219458
-0.00351896
0.0233155
0.024751
-0.00390127
-0.00140111
-0.00163599
0.0164935
-0.00188658
0.0175007
-0.00215399
0.0185809
-0.00243949
0.0197354
-0.00274447
0.0209665
-0.00307075
0.0222721
-0.00341961
0.0236644
0.0251266
-0.00157203
0.0167229
-0.00181691
0.0177455
-0.00207838
0.0188424
-0.00235777
0.0200147
-0.00265648
0.0212652
-0.00297639
0.022592
-0.00331877
0.0240068
0.0254953
-0.00150714
0.0169467
-0.0017462
0.0179846
-0.00200166
0.0190979
-0.00227484
0.0202879
-0.00256718
0.0215575
-0.00288063
0.0229054
-0.00321643
0.0243426
-0.00144132
-0.00167449
0.0182178
-0.00192384
0.0193472
-0.00219071
0.0205548
-0.0024766
0.0218434
-0.00278348
0.0232123
0.0246717
-0.00160178
0.018445
-0.00184493
0.0195904
-0.00210541
0.0208153
-0.00238474
0.0221227
-0.00268495
0.0235125
0.0249941
-0.0015281
-0.00176495
0.0198272
-0.00201894
0.0210693
-0.00229161
0.0223954
-0.00258505
0.023806
0.0253096
-0.00168392
0.0200577
-0.00193132
0.0213167
-0.00219722
0.0226613
-0.00248377
0.0240925
0.0256181
-0.00160186
0.0202817
-0.00184256
0.0215574
-0.00210159
0.0229203
-0.00238112
0.024372
0.0259195
-0.00151878
-0.00175268
0.0217913
-0.00200472
0.0231724
-0.00227712
0.0246444
0.0262137
-0.00166169
-0.00190663
0.0234173
-0.00217176
0.0249096
0.0265006
-0.00180732
0.023655
-0.00206506
0.0251673
0.02678
-0.00170681
-0.00195701
0.0254175
0.02566
0.00612797
4.96844e-05
9.59687e-06
0.00606978
3.05723e-05
2.76127e-05
0.00601264
1.26877e-05
4.44522e-05
0.00595656
-4.10823e-06
6.01968e-05
0.00590146
-1.99565e-05
7.50556e-05
0.00584733
-3.50188e-05
8.91434e-05
0.00579415
-4.93899e-05
0.000102576
0.00574186
-6.31534e-05
0.000115434
0.00569045
-7.63826e-05
0.000127792
0.00563988
-8.91346e-05
0.000139707
0.00559011
-0.000101459
0.000151226
0.00554112
-0.000113391
0.000162385
0.00549287
-0.000124961
0.000173214
0.00544533
-0.000136192
0.000183733
0.00539847
-0.000147103
0.00019396
0.00535227
-0.000157706
0.000203907
0.0053067
-0.000168012
0.00021358
0.00526174
-0.000178026
0.000222984
0.00521737
-0.000187752
0.000232122
0.00517357
-0.000197192
0.000240991
0.00513033
-0.000206344
0.000249587
0.00508763
-0.000215204
0.000257903
0.00504547
-0.000223762
0.000265924
0.00500384
-0.000232004
0.000273629
0.00496277
-0.000239901
0.000280976
0.00492226
-0.000247413
0.000287921
0.0048824
-0.000254459
0.00029432
0.00484321
-0.000260924
0.000300107
0.00480513
-0.000266467
0.000304552
-0.000270239
0.000307387
0.00613227
0.000104667
0.00607824
8.45969e-05
0.00602515
6.57815e-05
0.00597297
4.80712e-05
0.0059217
3.13178e-05
0.00587129
1.53855e-05
0.00582173
1.69439e-07
0.00577299
-1.44087e-05
0.00572503
-2.8425e-05
0.00567783
-4.19333e-05
0.00563136
-5.49882e-05
0.00558559
-6.76214e-05
0.00554049
-7.98654e-05
0.00549605
-9.17454e-05
0.00545222
-0.00010328
0.005409
-0.000114484
0.00536636
-0.000125369
0.00532427
-0.000135941
0.00528273
-0.000146208
0.00524171
-0.000156171
0.0052012
-0.000165831
0.00516118
-0.000175185
0.00512164
-0.000184225
0.00508257
-0.000192935
0.00504396
-0.000201286
0.00500578
-0.000209231
0.004968
-0.000216688
0.00493059
-0.000223509
0.00489354
-0.000229422
-0.00023434
0.00613649
0.000155429
0.00608654
0.00013454
0.00603741
0.000114913
0.00598909
9.63955e-05
0.00594156
7.88447e-05
0.00589481
6.21369e-05
0.00584881
4.61696e-05
0.00580354
3.0861e-05
0.00575898
1.61392e-05
0.00571509
1.95521e-06
0.00567186
-1.17591e-05
0.00562926
-2.50229e-05
0.00558727
-3.7874e-05
0.00554586
-5.03393e-05
0.00550502
-6.24368e-05
0.00546472
-7.41829e-05
0.00542494
-8.55897e-05
0.00538566
-9.66664e-05
0.00534688
-0.000107419
0.00530856
-0.000117852
0.00527069
-0.000127965
0.00523326
-0.000137757
0.00519626
-0.000147218
0.00515965
-0.000156332
0.00512344
-0.000165069
0.00508758
-0.00017338
0.00505208
-0.000181181
0.0050169
-0.000188332
0.00498215
-0.000194671
-0.000200188
0.00614062
0.000202062
0.00609467
0.000180482
0.00604943
0.00016016
0.00600488
0.000140944
0.00596102
0.000122702
0.00591784
0.000105317
0.00587532
8.86895e-05
0.00583344
7.27389e-05
0.00579219
5.73964e-05
0.00575153
4.26069e-05
0.00571146
2.83164e-05
0.00567194
1.44922e-05
0.00563297
1.10424e-06
0.00559451
-1.18813e-05
0.00555655
-2.44778e-05
0.00551907
-3.67047e-05
0.00548206
-4.85746e-05
0.00544549
-6.00974e-05
0.00540935
-7.12805e-05
0.00537362
-8.21277e-05
0.0053383
-9.26407e-05
0.00530336
-0.000102816
0.00526879
-0.000112646
0.00523457
-0.000122113
0.00520069
-0.000131189
0.00516713
-0.000139824
0.00513389
-0.00014794
0.00510098
-0.000155415
0.00506846
-0.000162153
-0.000168163
0.00614465
0.00024466
0.00610263
0.000222508
0.00606118
0.000201602
0.00602033
0.000181797
0.00598007
0.000162966
0.00594038
0.000145
0.00590127
0.000127803
0.00586271
0.000111298
0.00582469
9.54156e-05
0.0057872
8.01017e-05
0.00575021
6.53076e-05
0.0057137
5.09961e-05
0.00567767
3.7136e-05
0.00564209
2.36988e-05
0.00560695
1.06654e-05
0.00557223
-1.98216e-06
0.00553791
-1.42572e-05
0.00550398
-2.61704e-05
0.00547043
-3.77296e-05
0.00543724
-4.89392e-05
0.0054044
-5.9801e-05
0.0053719
-7.0312e-05
0.00533971
-8.04638e-05
0.00530784
-9.02395e-05
0.00527626
-9.96108e-05
0.00524497
-0.000108533
0.00521397
-0.000116934
0.00518326
-0.000124709
0.0051529
-0.000131796
-0.000138228
0.0061486
0.000283315
0.0061104
0.000260703
0.00607268
0.000239322
0.00603545
0.000219031
0.0059987
0.000199712
0.00596244
0.000181259
0.00592666
0.000163583
0.00589135
0.000146607
0.0058565
0.000130266
0.0058221
0.000114507
0.00578812
9.92813e-05
0.00575456
8.45525e-05
0.00572141
7.0289e-05
0.00568865
5.64635e-05
0.00565626
4.30553e-05
0.00562423
3.00468e-05
0.00559255
1.74238e-05
0.0055612
5.17511e-06
0.00553018
-6.70679e-06
0.00549947
-1.82275e-05
0.00546906
-2.9389e-05
0.00543893
-4.01873e-05
0.00540908
-5.06156e-05
0.0053795
-6.06571e-05
0.00535017
-7.02854e-05
0.0053211
-7.94597e-05
0.00529228
-8.81145e-05
0.00526373
-9.61582e-05
0.00523548
-0.00010355
-0.000110332
0.00615244
0.000318122
0.00611799
0.000295157
0.00608391
0.000273404
0.00605021
0.000252728
0.00601691
0.000233016
0.005984
0.000214169
0.00595148
0.000196101
0.00591935
0.000178738
0.00588759
0.000162019
0.00585621
0.000145889
0.00582519
0.000130305
0.00579451
0.000115228
0.00576417
0.000100628
0.00573416
8.64778e-05
0.00570446
7.27562e-05
0.00567506
5.94454e-05
0.00564595
4.65311e-05
0.00561713
3.4002e-05
0.00558857
2.18497e-05
0.00556027
1.00689e-05
0.00553223
-1.34535e-06
0.00550442
-1.23828e-05
0.00547685
-2.30446e-05
0.00544951
-3.33104e-05
0.00542238
-4.31576e-05
0.00539547
-5.2549e-05
0.00536878
-6.14252e-05
0.00534233
-6.9705e-05
0.00531613
-7.73586e-05
-8.44279e-05
0.0061562
0.000349176
0.00612539
0.00032596
0.00609486
0.000303935
0.00606462
0.00028297
0.00603468
0.000262959
0.00600504
0.000243806
0.00597571
0.000225431
0.00594669
0.000207763
0.00591796
0.000190742
0.00588953
0.000174318
0.00586139
0.000158446
0.00583353
0.000143089
0.00580594
0.000128218
0.00577861
0.000113806
0.00575154
9.98315e-05
0.00572471
8.62766e-05
0.00569811
7.31267e-05
0.00567174
6.03705e-05
0.00564559
4.79995e-05
0.00561965
3.60076e-05
0.00559392
2.43925e-05
0.00556838
1.31575e-05
0.00554303
2.30341e-06
0.00551786
-8.14378e-06
0.00549288
-1.81726e-05
0.00546807
-2.77452e-05
0.00544345
-3.6808e-05
0.00541904
-4.52883e-05
0.00539484
-5.3162e-05
-6.04643e-05
0.00615985
0.000376576
0.0061326
0.000353206
0.00610554
0.000331003
0.00607867
0.000309841
0.00605201
0.000289619
0.00602556
0.000270247
0.00599935
0.000251648
0.00597336
0.000233754
0.00594759
0.000216508
0.00592205
0.000199862
0.00589672
0.000183772
0.00587161
0.000168203
0.0058467
0.000153125
0.00582199
0.000138513
0.00579748
0.000124344
0.00577315
0.000110602
0.00574901
9.72716e-05
0.00572504
8.43411e-05
0.00570124
7.18018e-05
0.0056776
5.96479e-05
0.00565411
4.78765e-05
0.00563078
3.64892e-05
0.00560759
2.54913e-05
0.00558455
1.48977e-05
0.00556165
4.7242e-06
0.0055389
-4.99277e-06
0.0055163
-1.42052e-05
0.00549386
-2.28498e-05
0.0054716
-3.0901e-05
-3.83884e-05
0.00616341
0.00040042
0.00613962
0.000376989
0.00611593
0.000354698
0.00609234
0.000333428
0.00606888
0.000313081
0.00604556
0.000293572
0.00602238
0.000274829
0.00599934
0.000256786
0.00597646
0.000239389
0.00595373
0.000222591
0.00593115
0.000206351
0.00590872
0.000190635
0.00588643
0.000175414
0.00586428
0.000160661
0.00584227
0.000146357
0.00582039
0.000132484
0.00579864
0.000119026
0.005777
0.000105974
0.00575549
9.33158e-05
0.00573409
8.10475e-05
0.0057128
6.91652e-05
0.00569162
5.76701e-05
0.00567054
4.65675e-05
0.00564957
3.5869e-05
0.0056287
2.55931e-05
0.00560794
1.57688e-05
0.0055873
6.43959e-06
0.00556678
-2.33589e-06
0.0055464
-1.05187e-05
-1.81491e-05
0.00616686
0.000420808
0.00614645
0.000397404
0.00612603
0.000375112
0.00610564
0.000353817
0.0060853
0.000333427
0.00606501
0.000313862
0.00604478
0.000295051
0.00602464
0.000276933
0.00600457
0.000259457
0.00598458
0.000242576
0.00596468
0.000226253
0.00594486
0.000210454
0.00592513
0.00019515
0.00590547
0.000180317
0.00588589
0.000165934
0.00586639
0.000151984
0.00584697
0.000138452
0.00582761
0.000125328
0.00580833
0.0001126
0.00578911
0.000100264
0.00576996
8.83162e-05
0.00575088
7.67565e-05
0.00573185
6.55897e-05
0.0057129
5.48267e-05
0.005694
4.44845e-05
0.00567518
3.45895e-05
0.00565644
2.51841e-05
0.00563778
1.63246e-05
0.00561922
8.03665e-06
3.00606e-07
0.00617022
0.000437841
0.00615307
0.000414549
0.00613584
0.000392338
0.00611856
0.0003711
0.00610124
0.000350745
0.00608391
0.000331199
0.00606656
0.000312394
0.00604922
0.000294274
0.00603189
0.000276787
0.00601458
0.000259891
0.00599728
0.000243548
0.00598001
0.000227728
0.00596276
0.000212401
0.00594553
0.000197544
0.00592833
0.000183138
0.00591115
0.000169165
0.00589399
0.000155611
0.00587685
0.000142463
0.00585974
0.000129714
0.00584265
0.000117356
0.00582558
0.000105387
0.00580853
9.38047e-05
0.0057915
8.26148e-05
0.0057745
7.18263e-05
0.00575753
6.14555e-05
0.00574059
5.15271e-05
0.0057237
4.20812e-05
0.00570685
3.317e-05
0.00569007
2.48162e-05
1.703e-05
0.00617347
0.000451623
0.00615949
0.000428523
0.00614536
0.000406472
0.00613109
0.000385366
0.00611672
0.000365122
0.00610225
0.000345668
0.0060877
0.000326941
0.00607309
0.000308886
0.00605842
0.000291455
0.00604371
0.000274608
0.00602895
0.000258308
0.00601415
0.000242526
0.00599931
0.000227235
0.00598445
0.000212411
0.00596955
0.000198035
0.00595463
0.00018409
0.00593967
0.000170563
0.00592469
0.000157442
0.00590969
0.000144717
0.00589467
0.000132383
0.00587962
0.000120434
0.00586455
0.000108872
0.00584947
9.76986e-05
0.00583437
8.69238e-05
0.00581926
7.65621e-05
0.00580415
6.66371e-05
0.00578905
5.71864e-05
0.00577396
4.82593e-05
0.0057589
3.98792e-05
3.20717e-05
0.00617662
0.000462257
0.00616571
0.000439425
0.00615458
0.000417609
0.00614323
0.000396709
0.00613171
0.000376647
0.00612002
0.000357355
0.00610819
0.000338773
0.00609623
0.000320849
0.00608414
0.000303539
0.00607195
0.000286802
0.00605965
0.000270606
0.00604726
0.00025492
0.00603477
0.00023972
0.0060222
0.000224982
0.00600954
0.000210689
0.00599681
0.000196824
0.005984
0.000183373
0.00597112
0.000170324
0.00595817
0.00015767
0.00594515
0.000145402
0.00593206
0.000133517
0.00591892
0.000122015
0.00590572
0.000110898
0.00589247
0.000100175
0.00587917
8.98592e-05
0.00586584
7.99737e-05
0.00585247
7.0554e-05
0.00583908
6.16464e-05
0.00582568
5.32757e-05
4.54806e-05
0.00617966
0.000469848
0.00617173
0.000447358
0.00616349
0.000425847
0.00615497
0.000405223
0.00614621
0.000385411
0.00613722
0.000366348
0.00612801
0.000347976
0.00611862
0.000330246
0.00610904
0.000313117
0.00609929
0.000296551
0.00608938
0.000280515
0.00607932
0.000264982
0.00606911
0.000249927
0.00605876
0.000235329
0.00604828
0.000221169
0.00603768
0.000207432
0.00602695
0.000194104
0.0060161
0.000181174
0.00600513
0.000168633
0.00599406
0.000156475
0.00598288
0.000144695
0.00597161
0.000133293
0.00596023
0.00012227
0.00594877
0.000111636
0.00593723
0.000101403
0.00592561
9.15919e-05
0.00591393
8.22378e-05
0.00590219
7.33842e-05
0.00589041
6.5057e-05
5.73072e-05
0.00618259
0.000474504
0.00617753
0.000452423
0.00617209
0.000431286
0.00616631
0.000411003
0.00616022
0.000391506
0.00615383
0.000372735
0.00614717
0.000354635
0.00614025
0.000337161
0.0061331
0.000320272
0.00612572
0.000303933
0.00611812
0.000288113
0.00611032
0.000272786
0.00610231
0.000257929
0.00609412
0.00024352
0.00608575
0.000229542
0.0060772
0.00021598
0.00606849
0.000202821
0.00605961
0.000190053
0.00605057
0.000177669
0.00604138
0.000165662
0.00603205
0.000154027
0.00602258
0.000142763
0.00601298
0.000131873
0.00600325
0.000121364
0.0059934
0.000111248
0.00598345
0.000101547
0.00597339
9.22921e-05
0.00596325
8.35258e-05
0.00595303
7.52754e-05
6.76018e-05
0.00618542
0.000476331
0.00618312
0.000454726
0.00618038
0.000434025
0.00617724
0.000414147
0.00617372
0.000395027
0.00616984
0.000376607
0.00616564
0.000358839
0.00616112
0.000341677
0.00615631
0.000325084
0.00615122
0.000309027
0.00614585
0.000293477
0.00614023
0.000278408
0.00613436
0.000263797
0.00612826
0.000249626
0.00612192
0.000235877
0.00611536
0.000222536
0.0061086
0.00020959
0.00610162
0.000197028
0.00609445
0.000184842
0.00608708
0.000173025
0.00607954
0.000161574
0.00607181
0.000150486
0.00606392
0.000139765
0.00605587
0.000129417
0.00604766
0.000119453
0.00603932
0.000109895
0.00603084
0.000100772
0.00602224
9.2125e-05
0.00601353
8.39828e-05
7.64151e-05
0.00618814
0.000475439
0.0061885
0.000454369
0.00618836
0.000434167
0.00618775
0.000414753
0.00618671
0.000396068
0.00618526
0.000378058
0.00618342
0.000360676
0.00618122
0.000343882
0.00617866
0.000327639
0.00617577
0.000311916
0.00617256
0.000296686
0.00616905
0.000281924
0.00616524
0.000267608
0.00616114
0.000253721
0.00615677
0.000240247
0.00615214
0.00022717
0.00614725
0.000214479
0.00614211
0.000202164
0.00613674
0.000190216
0.00613114
0.000178628
0.00612531
0.000167398
0.00611928
0.000156523
0.00611304
0.000146006
0.0061066
0.000135852
0.00609998
0.000126074
0.00609318
0.000116691
0.00608622
0.000107732
0.00607911
9.92358e-05
0.00607186
9.12323e-05
8.37982e-05
0.00619075
0.000471938
0.00619366
0.000451462
0.00619601
0.000431813
0.00619784
0.00041292
0.00619919
0.000394726
0.00620006
0.00037718
0.0062005
0.000360239
0.00620052
0.000343864
0.00620014
0.000328022
0.00619937
0.000312683
0.00619824
0.00029782
0.00619675
0.000283412
0.00619492
0.000269438
0.00619276
0.00025588
0.00619028
0.000242722
0.0061875
0.000229952
0.00618442
0.000217557
0.00618106
0.000205528
0.00617742
0.000193856
0.00617351
0.000182536
0.00616935
0.000171562
0.00616494
0.000160935
0.00616029
0.000150656
0.00615541
0.000140731
0.00615031
0.00013117
0.00614501
0.000121994
0.00613951
0.000113229
0.00613384
0.000104913
0.00612799
9.7077e-05
8.98035e-05
0.00619325
0.000465939
0.0061986
0.000446111
0.00620334
0.00042707
0.00620751
0.00040875
0.00621114
0.000391099
0.00621425
0.000374068
0.00621687
0.000357618
0.00621902
0.000341713
0.00622073
0.000326319
0.006222
0.000311411
0.00622285
0.000296963
0.00622331
0.000282954
0.00622339
0.000269364
0.00622309
0.000256177
0.00622243
0.000243378
0.00622143
0.000230954
0.00622009
0.000218895
0.00621843
0.000207189
0.00621646
0.00019583
0.00621418
0.000184812
0.00621161
0.000174131
0.00620876
0.000163785
0.00620564
0.000153777
0.00620226
0.000144111
0.00619863
0.0001348
0.00619476
0.00012586
0.00619067
0.000117319
0.00618638
0.000109212