/*--------------------------------*- C++ -*----------------------------------*\
  =========                 |
  \\      /  F ield         | OpenFOAM: The Open Source CFD Toolbox
   \\    /   O peration     | Website:  https://openfoam.org
    \\  /    A nd           | Version:  7
     \\/     M anipulation  |
\*---------------------------------------------------------------------------*/
FoamFile
{
    version     2.0;
    format      ascii;
    class       volVectorField;
    location    "10";
    object      U;
}
// * * * * * * * * * * * * * * * * * * * * * * * * * * * * * * * * * * * * * //

dimensions      [0 1 -1 0 0 0 0];

internalField   nonuniform List<vector> 
2625
(
(0.493648 0.00815319 8.07613e-21)
(0.575314 0.00725043 9.72546e-21)
(0.493648 -0.00815377 -8.07613e-21)
(0.575314 -0.007251 -9.72546e-21)
(0.643871 -0.00635504 8.02864e-21)
(0.702897 -0.00552271 -1.10659e-20)
(0.752406 -0.00478877 3.10694e-21)
(0.794715 -0.00414843 1.87298e-21)
(0.830487 -0.00359553 3.61304e-22)
(0.861066 -0.0031152 7.36687e-21)
(0.887063 -0.0026969 6.7886e-21)
(0.909263 -0.00232968 -1.54175e-21)
(0.928133 -0.00200585 -6.21494e-21)
(0.944152 -0.00171812 3.56255e-21)
(0.957679 -0.00146172 8.8019e-21)
(0.96899 -0.00122947 8.96544e-22)
(0.978389 -0.00102388 4.6884e-21)
(0.494156 -0.0244511 3.28806e-21)
(0.575757 -0.0217446 -3.71363e-21)
(0.644256 -0.0190582 1.54266e-20)
(0.703229 -0.0165624 6.68489e-21)
(0.752693 -0.0143615 -6.51747e-21)
(0.794964 -0.0124412 1.39772e-20)
(0.830703 -0.0107831 6.96138e-21)
(0.861253 -0.00934257 -6.37097e-21)
(0.887225 -0.0080881 -2.08193e-20)
(0.909403 -0.00698681 -1.07266e-20)
(0.928253 -0.00601562 1.41914e-20)
(0.944252 -0.0051527 -7.13924e-21)
(0.957762 -0.00438374 -2.50518e-20)
(0.969056 -0.00368722 5.97568e-22)
(0.978441 -0.00307067 2.25394e-21)
(0.49517 -0.0407196 2.81685e-20)
(0.576644 -0.0362149 3.84497e-21)
(0.645025 -0.0317424 -3.65415e-21)
(0.703893 -0.0275864 1.05818e-20)
(0.753267 -0.023921 3.26266e-20)
(0.79546 -0.0207229 1.85643e-20)
(0.831133 -0.0179611 6.99186e-21)
(0.861626 -0.0155618 -1.81572e-20)
(0.887549 -0.0134722 2.62086e-21)
(0.909682 -0.0116377 -1.1225e-20)
(0.928492 -0.0100199 -1.28363e-20)
(0.944454 -0.00858249 1.5265e-20)
(0.957929 -0.00730153 2.03741e-20)
(0.969188 -0.00614138 -6.77596e-21)
(0.978546 -0.00511432 -3.19413e-20)
(0.496689 -0.05694 -6.64315e-20)
(0.577972 -0.0506462 4.4776e-20)
(0.646178 -0.0443947 1.65846e-20)
(0.704888 -0.0385842 -1.03962e-20)
(0.754127 -0.0334587 -2.62565e-20)
(0.796204 -0.028986 -2.8422e-20)
(0.831778 -0.0251233 1.8504e-20)
(0.862186 -0.0217673 -1.85129e-20)
(0.888034 -0.0188445 4.37772e-20)
(0.9101 -0.0162784 1.5874e-20)
(0.92885 -0.0140152 1.14979e-20)
(0.944756 -0.0120043 -2.51276e-20)
(0.95818 -0.0102123 -4.86522e-21)
(0.969386 -0.00858955 1.71629e-20)
(0.978703 -0.00715272 2.68527e-20)
(0.498711 -0.0730933 5.19545e-20)
(0.57974 -0.0650231 -5.00974e-20)
(0.647712 -0.0570026 2.73942e-20)
(0.706212 -0.0495455 -2.99787e-20)
(0.755272 -0.0429658 -9.63663e-21)
(0.797195 -0.0372233 1.5237e-21)
(0.832638 -0.0322635 -2.43878e-20)
(0.862932 -0.0279539 3.22188e-20)
(0.888681 -0.0242003 -2.31449e-20)
(0.910658 -0.0209045 -5.12424e-21)
(0.929328 -0.0179977 1.21482e-20)
(0.94516 -0.0154149 -1.14237e-20)
(0.958515 -0.0131131 3.42045e-20)
(0.96965 -0.0110293 1.28411e-20)
(0.978913 -0.00918377 -1.37437e-20)
(0.501232 -0.0891603 -1.1879e-19)
(0.581946 -0.0793301 8.05137e-21)
(0.649627 -0.0695535 -8.90606e-20)
(0.707865 -0.0604598 5.39803e-20)
(0.756701 -0.0524337 -7.83981e-20)
(0.798431 -0.0454274 -2.80011e-20)
(0.833711 -0.0393752 1.76528e-20)
(0.863863 -0.034116 4.11793e-20)
(0.889488 -0.0295348 2.5057e-21)
(0.911355 -0.0255122 6.7273e-20)
(0.929925 -0.021964 1.07562e-20)
(0.945664 -0.0188112 -1.66992e-20)
(0.958934 -0.0160012 -2.25529e-20)
(0.96998 -0.0134583 -4.17492e-20)
(0.979177 -0.0112053 1.22584e-20)
(0.584587 -0.0935518 5.62019e-20)
(0.65192 -0.0820349 -2.17928e-20)
(0.709844 -0.0713168 -9.94138e-20)
(0.758413 -0.0618537 8.5143e-20)
(0.799913 -0.0535911 6.47978e-20)
(0.834996 -0.0464524 4.45179e-20)
(0.864979 -0.0402483 -6.32206e-20)
(0.890455 -0.0348435 -5.67725e-20)
(0.91219 -0.0300973 -8.80622e-20)
(0.930641 -0.0259104 -8.03834e-20)
(0.946269 -0.02219 6.47301e-20)
(0.959436 -0.0188739 -3.87067e-20)
(0.970378 -0.0158741 2.57597e-20)
(0.979495 -0.0132152 6.68111e-21)
(0.587659 -0.107673 -8.71563e-20)
(0.654589 -0.0944343 -4.83624e-21)
(0.712148 -0.0821064 1.22904e-19)
(0.760406 -0.0712172 1.04115e-20)
(0.801637 -0.061707 -2.74997e-20)
(0.836493 -0.0534887 -9.00481e-20)
(0.866278 -0.0463455 4.44011e-20)
(0.891582 -0.0401218 4.27126e-20)
(0.913164 -0.0346558 4.74227e-20)
(0.931476 -0.0298334 3.23618e-20)
(0.946974 -0.0255482 -6.60978e-20)
(0.960024 -0.0217282 1.59348e-20)
(0.970843 -0.0182743 5.97493e-20)
(0.979868 -0.0152112 -6.22772e-20)
(0.591158 -0.121679 2.09505e-20)
(0.657629 -0.106739 1.6251e-19)
(0.714774 -0.0928184 -1.18985e-19)
(0.762677 -0.0805158 -1.19632e-19)
(0.803604 -0.069768 -2.03855e-20)
(0.8382 -0.0604782 5.43192e-20)
(0.86776 -0.0524023 1.95978e-20)
(0.892868 -0.0453649 1.23857e-20)
(0.914275 -0.0391836 5.06561e-20)
(0.932429 -0.0337294 6.52654e-20)
(0.947781 -0.0288826 7.61876e-20)
(0.960695 -0.0245615 -9.63607e-21)
(0.971376 -0.0206565 -2.92084e-20)
(0.980297 -0.0171911 8.99779e-20)
(0.59508 -0.135554 -6.65129e-20)
(0.661038 -0.118938 3.12287e-20)
(0.717719 -0.103443 1.51587e-19)
(0.765225 -0.0897411 1.5144e-19)
(0.80581 -0.0777671 4.14618e-21)
(0.840115 -0.0674147 -1.28457e-19)
(0.869423 -0.0584135 2.79983e-20)
(0.894312 -0.0505685 -1.53918e-20)
(0.915523 -0.0436768 -7.59299e-20)
(0.933501 -0.037595 -1.0467e-19)
(0.948688 -0.0321901 -2.99294e-20)
(0.961452 -0.0273708 7.42653e-21)
(0.971978 -0.0230182 -9.36477e-20)
(0.980782 -0.0191526 -2.40571e-20)
(0.599419 -0.149283 1.13317e-19)
(0.664811 -0.131018 -4.54166e-20)
(0.720979 -0.113969 -5.63671e-20)
(0.768047 -0.0988848 2.85553e-20)
(0.808254 -0.0856971 1.44384e-19)
(0.842238 -0.0742922 1.65668e-19)
(0.871267 -0.0643739 -8.16759e-20)
(0.895913 -0.0557279 2.13338e-20)
(0.916907 -0.0481316 1.46046e-20)
(0.93469 -0.0414267 1.52214e-19)
(0.949696 -0.0354678 1.60539e-21)
(0.962294 -0.0301535 3.88054e-20)
(0.972649 -0.0253571 -8.18949e-21)
(0.981326 -0.0210934 1.45366e-20)
(0.604169 -0.162853 -1.99625e-19)
(0.668944 -0.142967 -5.20393e-20)
(0.724552 -0.124388 2.71907e-20)
(0.771141 -0.107939 -2.05601e-19)
(0.810934 -0.0935512 -2.69016e-19)
(0.844565 -0.0811047 -2.02365e-19)
(0.873289 -0.0702784 8.32064e-20)
(0.897669 -0.0608389 1.38298e-21)
(0.918427 -0.0525439 -2.08332e-20)
(0.935997 -0.045221 -1.34452e-19)
(0.950805 -0.0387124 -2.34922e-20)
(0.963222 -0.0329068 -4.42271e-20)
(0.97339 -0.0276708 8.71709e-20)
(0.981928 -0.0230112 -6.92964e-20)
(0.609325 -0.176248 4.33259e-20)
(0.673431 -0.154774 -3.87959e-20)
(0.728433 -0.13469 -4.99447e-20)
(0.774502 -0.116894 5.78929e-20)
(0.813846 -0.101323 8.73646e-20)
(0.847096 -0.0878466 1.06657e-19)
(0.875489 -0.076122 -4.5765e-20)
(0.899581 -0.065897 2.59424e-20)
(0.920082 -0.0569101 -6.35594e-20)
(0.937421 -0.0489747 1.70317e-20)
(0.952015 -0.0419211 1.80294e-20)
(0.964235 -0.0356279 4.32797e-20)
(0.974201 -0.0299567 -6.71918e-20)
(0.98259 -0.0249035 1.10858e-19)
(0.61488 -0.189454 2.48105e-19)
(0.678269 -0.166426 -4.77382e-21)
(0.732618 -0.144866 8.81002e-21)
(0.778127 -0.125744 1.86596e-19)
(0.816989 -0.109004 1.00007e-19)
(0.849827 -0.0945119 6.90407e-20)
(0.877864 -0.0818997 2.88019e-20)
(0.901645 -0.0708979 -5.24772e-21)
(0.921871 -0.0612262 1.23896e-19)
(0.938961 -0.0526843 -1.0143e-21)
(0.953325 -0.0450909 9.11362e-21)
(0.965335 -0.0383142 -1.02267e-19)
(0.975085 -0.0322126 1.75294e-20)
(0.983314 -0.0267679 -1.15442e-19)
(0.620825 -0.202458 3.62536e-20)
(0.68345 -0.177914 -1.35119e-19)
(0.737103 -0.154905 -2.21185e-20)
(0.782014 -0.134481 -1.65578e-19)
(0.820359 -0.11659 -1.23089e-19)
(0.852757 -0.101095 2.86345e-20)
(0.880413 -0.0876066 -5.35074e-20)
(0.903862 -0.0758374 -1.70931e-19)
(0.923792 -0.0654888 -3.74644e-20)
(0.940617 -0.0563466 -2.78008e-21)
(0.954735 -0.0482188 -5.74257e-20)
(0.966521 -0.040963 1.38437e-19)
(0.97604 -0.034436 -9.4867e-20)
(0.9841 -0.0286019 9.46909e-20)
(0.627154 -0.215245 -1.11815e-19)
(0.688968 -0.189225 1.77422e-20)
(0.741882 -0.164798 -9.82855e-20)
(0.786157 -0.143095 1.07937e-19)
(0.823953 -0.124073 -4.15647e-20)
(0.855883 -0.107591 -5.81913e-20)
(0.883133 -0.0932381 -2.00482e-19)
(0.906229 -0.0807114 1.48694e-19)
(0.925846 -0.069694 9.71544e-20)
(0.942389 -0.0599584 9.03079e-20)
(0.956246 -0.051302 5.05249e-20)
(0.967794 -0.0435716 -1.79295e-19)
(0.977069 -0.0366246 1.29147e-19)
(0.98495 -0.030403 9.31679e-21)
(0.633857 -0.227802 8.97002e-20)
(0.694817 -0.200347 1.05773e-19)
(0.746951 -0.174538 3.04812e-19)
(0.790553 -0.151581 -2.22451e-19)
(0.827768 -0.131447 2.97582e-20)
(0.859202 -0.113993 1.62457e-20)
(0.886022 -0.0987894 1.23255e-19)
(0.908745 -0.0855157 -7.52664e-20)
(0.92803 -0.0738384 -7.29462e-20)
(0.944275 -0.0635165 -6.42121e-20)
(0.957857 -0.0543377 -1.93262e-20)
(0.969154 -0.0461374 1.18057e-19)
(0.978172 -0.0387759 8.8259e-21)
(0.985865 -0.0321686 -1.10929e-19)
(0.640926 -0.240116 -2.97406e-20)
(0.70099 -0.211272 -1.12427e-19)
(0.752303 -0.184114 -2.26006e-19)
(0.795198 -0.15993 2.25623e-19)
(0.831799 -0.138706 7.89761e-20)
(0.862711 -0.120297 -1.14524e-19)
(0.889079 -0.104256 -2.56358e-20)
(0.911408 -0.0902466 -3.3959e-20)
(0.930344 -0.0779185 -6.00517e-20)
(0.946276 -0.0670179 5.32186e-21)
(0.959568 -0.0573231 7.2869e-20)
(0.970601 -0.0486578 3.37655e-20)
(0.97935 -0.0408876 3.00587e-20)
(0.986847 -0.0338962 1.75859e-20)
(0.648351 -0.252174 -9.3761e-20)
(0.70748 -0.221987 1.79428e-20)
(0.757934 -0.193518 1.56484e-19)
(0.800086 -0.168136 -1.64335e-20)
(0.836045 -0.145844 2.69217e-21)
(0.866407 -0.126497 1.18478e-20)
(0.892301 -0.109633 2.96647e-19)
(0.914216 -0.0948999 7.30675e-20)
(0.932785 -0.081931 7.51048e-20)
(0.948389 -0.0704596 -5.82316e-20)
(0.961379 -0.0602555 2.49157e-20)
(0.972136 -0.0511304 -1.29386e-19)
(0.980603 -0.0429573 -6.36376e-20)
(0.987895 -0.0355831 8.62707e-20)
(0.656123 -0.263963 -1.75696e-21)
(0.714278 -0.232483 -1.32397e-19)
(0.763836 -0.202742 -2.79078e-19)
(0.805213 -0.176191 1.456e-19)
(0.840499 -0.152854 -9.56535e-20)
(0.870288 -0.132589 4.43189e-20)
(0.895684 -0.114917 -2.02939e-19)
(0.917168 -0.0994721 2.6845e-20)
(0.935354 -0.0858724 3.51468e-20)
(0.950615 -0.0738387 1.13765e-19)
(0.963289 -0.0631322 -6.84459e-20)
(0.973759 -0.0535525 6.05827e-20)
(0.981934 -0.0449829 1.27378e-19)
(0.989013 -0.0372268 -1.35892e-19)
(0.66423 -0.275471 -2.67867e-19)
(0.721377 -0.24275 3.83554e-19)
(0.770003 -0.211777 2.22286e-19)
(0.810573 -0.184089 -6.30169e-20)
(0.845158 -0.159731 3.97449e-20)
(0.874349 -0.138567 1.36372e-19)
(0.899227 -0.120103 1.03843e-19)
(0.92026 -0.103959 -5.5422e-21)
(0.938048 -0.0897397 -9.34127e-20)
(0.952952 -0.0771523 -7.12238e-20)
(0.965298 -0.0659508 -4.14928e-20)
(0.97547 -0.0559219 6.68202e-20)
(0.983341 -0.046962 -1.38925e-19)
(0.9902 -0.0388245 1.25001e-19)
(0.672662 -0.286686 2.42971e-19)
(0.728768 -0.252777 -7.23925e-20)
(0.77643 -0.220615 -8.52871e-20)
(0.816161 -0.191822 4.07137e-20)
(0.850019 -0.16647 -3.89901e-20)
(0.878588 -0.144427 -3.92495e-21)
(0.902927 -0.125187 -2.1833e-19)
(0.923492 -0.108358 9.76967e-20)
(0.940866 -0.0935297 4.63327e-20)
(0.955399 -0.0803976 -1.30328e-20)
(0.967406 -0.0687087 4.8145e-20)
(0.977269 -0.0582362 -1.80949e-20)
(0.984828 -0.0488923 -5.48344e-20)
(0.991457 -0.0403736 3.87618e-21)
(0.681407 -0.297596 1.61829e-19)
(0.736441 -0.262555 -1.5201e-19)
(0.783107 -0.229249 1.75843e-19)
(0.821972 -0.199385 -8.61945e-20)
(0.855076 -0.173065 -7.65227e-20)
(0.882999 -0.150163 -2.2009e-19)
(0.906781 -0.130165 -3.29594e-20)
(0.926861 -0.112665 -9.61542e-20)
(0.943806 -0.0972394 4.8177e-20)
(0.957956 -0.0835721 -1.1991e-19)
(0.969612 -0.0714035 -4.46321e-20)
(0.979156 -0.0604931 8.23435e-20)
(0.986393 -0.0507719 2.10097e-20)
(0.992786 -0.0418716 3.31163e-20)
(0.744388 -0.272076 4.52651e-20)
(0.790029 -0.23767 -2.5965e-19)
(0.828 -0.206771 1.15652e-19)
(0.860324 -0.17951 -3.10748e-20)
(0.887581 -0.155773 -3.66961e-20)
(0.910785 -0.135034 2.66213e-19)
(0.930364 -0.116877 -8.67728e-20)
(0.946866 -0.100866 4.30273e-20)
(0.960621 -0.0866732 3.62444e-20)
(0.971916 -0.074033 5.00002e-20)
(0.981131 -0.0626904 -7.00402e-20)
(0.988038 -0.0525984 5.66122e-20)
(0.994186 -0.0433159 -9.1584e-20)
(0.7526 -0.281329 4.76843e-22)
(0.797188 -0.245873 7.20937e-22)
(0.834238 -0.213974 -2.07746e-19)
(0.865759 -0.185801 1.22705e-19)
(0.892328 -0.16125 1.39939e-19)
(0.914937 -0.139789 -2.22535e-19)
(0.933999 -0.120991 -8.3366e-20)
(0.950045 -0.104407 -1.91084e-19)
(0.963393 -0.0896984 2.40269e-19)
(0.974317 -0.076595 2.66662e-20)
(0.983194 -0.0648261 -9.70421e-20)
(0.989764 -0.0543699 -1.23042e-19)
(0.995659 -0.0447038 4.79386e-21)
(0.761065 -0.290307 1.61299e-19)
(0.804576 -0.253849 -1.04057e-19)
(0.84068 -0.220988 2.13647e-19)
(0.871375 -0.191933 2.49809e-19)
(0.897237 -0.166591 6.23485e-21)
(0.919233 -0.144427 5.6926e-20)
(0.937763 -0.125003 1.94946e-19)
(0.95334 -0.107859 9.17594e-20)
(0.966271 -0.0926454 -1.56388e-19)
(0.976814 -0.0790872 -1.34601e-19)
(0.985345 -0.0668983 9.15706e-20)
(0.991571 -0.0560844 1.01219e-20)
(0.997203 -0.0460329 7.38052e-20)
(0.769774 -0.299001 4.33292e-20)
(0.812184 -0.261591 3.85788e-19)
(0.84732 -0.227807 -1.58852e-19)
(0.877168 -0.197901 -3.33216e-19)
(0.902304 -0.171793 -4.83751e-20)
(0.92367 -0.148945 8.28107e-20)
(0.941654 -0.128911 -3.61077e-20)
(0.95675 -0.111219 2.06431e-19)
(0.969253 -0.095512 5.37751e-20)
(0.979407 -0.0815078 1.25445e-20)
(0.987583 -0.0689049 -1.29471e-21)
(0.99346 -0.05774 5.65895e-20)
(0.998818 -0.0473008 1.43998e-21)
(0.778716 -0.307403 -1.80446e-19)
(0.820005 -0.269094 -2.50556e-19)
(0.854152 -0.234427 -2.44275e-19)
(0.883132 -0.2037 9.36046e-20)
(0.907523 -0.176851 1.63441e-19)
(0.928244 -0.153339 -2.87769e-20)
(0.945669 -0.132711 7.95075e-20)
(0.960273 -0.114487 -8.15282e-20)
(0.972337 -0.0982961 -5.44377e-20)
(0.982095 -0.0838549 5.47529e-20)
(0.989908 -0.0708444 3.69761e-21)
(0.995432 -0.0593348 8.95624e-20)
(1.0005 -0.0485052 -1.26386e-19)
(0.78788 -0.315506 1.72369e-19)
(0.828029 -0.27635 5.33882e-20)
(0.861167 -0.240842 1.11092e-19)
(0.889261 -0.209327 -8.41197e-20)
(0.912891 -0.181761 1.21353e-19)
(0.932952 -0.157607 1.13618e-19)
(0.949805 -0.136402 -1.71985e-19)
(0.963906 -0.117658 -2.50472e-19)
(0.975523 -0.100996 -1.61167e-20)
(0.984877 -0.0861266 -1.13561e-19)
(0.992319 -0.0727151 -1.23859e-19)
(0.997486 -0.060867 4.83657e-20)
(1.00226 -0.0496436 2.70084e-19)
(0.797255 -0.323302 -2.16245e-19)
(0.836249 -0.283355 -1.0195e-19)
(0.86836 -0.247047 1.85748e-20)
(0.895551 -0.214776 1.13796e-19)
(0.918403 -0.186521 -2.91877e-20)
(0.937791 -0.161745 -1.81318e-19)
(0.954059 -0.139981 1.67114e-19)
(0.967647 -0.120731 1.58743e-20)
(0.978808 -0.103609 9.2727e-20)
(0.987751 -0.0883213 2.58177e-19)
(0.994815 -0.0745157 1.81393e-19)
(0.999624 -0.0623349 -5.49362e-20)
(1.00408 -0.0507136 -2.63519e-19)
(0.806829 -0.330784 3.63495e-20)
(0.844654 -0.290102 2.08234e-19)
(0.875723 -0.253037 1.44741e-20)
(0.901994 -0.220045 -1.17979e-19)
(0.924054 -0.191126 -2.52442e-19)
(0.942755 -0.16575 1.16479e-19)
(0.958428 -0.143444 -2.05681e-19)
(0.971493 -0.123705 -1.38298e-21)
(0.98219 -0.106135 -1.47746e-19)
(0.990718 -0.0904375 -8.94922e-20)
(0.997396 -0.0762449 -1.92412e-20)
(1.00185 -0.0637367 -1.36208e-19)
(1.00597 -0.051714 3.12978e-20)
(0.816591 -0.337945 -4.03518e-20)
(0.853236 -0.296585 -1.42294e-19)
(0.883249 -0.258808 3.91941e-19)
(0.908586 -0.225129 1.49356e-20)
(0.92984 -0.195575 5.81893e-20)
(0.947841 -0.16962 -2.22691e-19)
(0.962909 -0.146791 -1.18614e-21)
(0.975443 -0.126576 -4.79151e-20)
(0.985668 -0.10857 1.44401e-19)
(0.993775 -0.0924738 -6.05925e-20)
(1.00006 -0.0779017 -2.03279e-19)
(1.00415 -0.0650708 -9.58034e-21)
(1.00792 -0.0526422 1.0071e-19)
(0.861986 -0.3028 4.28207e-20)
(0.89093 -0.264355 -1.94586e-19)
(0.915319 -0.230025 -1.10216e-19)
(0.935755 -0.199863 1.11336e-20)
(0.953046 -0.173353 1.34498e-19)
(0.967498 -0.150019 1.96554e-19)
(0.979493 -0.129344 1.27694e-19)
(0.98924 -0.110915 -4.57745e-20)
(0.99692 -0.0944289 1.51397e-21)
(1.00281 -0.0794851 1.2226e-19)
(1.00654 -0.0663353 1.6235e-19)
(1.00992 -0.0534961 -1.34866e-19)
(0.870892 -0.308742 4.77705e-20)
(0.898759 -0.269676 9.19769e-21)
(0.922189 -0.23473 -3.86698e-20)
(0.941794 -0.203988 -7.76776e-20)
(0.958365 -0.176946 1.27225e-20)
(0.972192 -0.153125 -1.55804e-19)
(0.983641 -0.132006 -1.09722e-19)
(0.992904 -0.113167 -5.21306e-20)
(1.00015 -0.0963017 1.60173e-20)
(1.00564 -0.0809947 -5.92608e-20)
(1.00902 -0.0675282 2.24905e-20)
(1.01198 -0.0542735 2.93497e-19)
(0.879947 -0.314405 -2.10323e-20)
(0.906727 -0.274765 7.57471e-20)
(0.929188 -0.239241 1.70318e-20)
(0.947953 -0.207948 2.86349e-19)
(0.963794 -0.180397 6.48147e-20)
(0.976989 -0.156109 6.08779e-20)
(0.987884 -0.134561 2.40342e-20)
(0.996657 -0.115326 -3.53303e-20)
(1.00347 -0.098091 9.92701e-21)
(1.00854 -0.0824298 -1.1576e-20)
(1.01158 -0.0686475 9.86208e-20)
(1.01408 -0.054972 -2.66556e-19)
(0.889138 -0.319786 1.11782e-20)
(0.914826 -0.27962 -7.1363e-20)
(0.93631 -0.243555 2.08584e-19)
(0.954226 -0.211739 -1.01083e-19)
(0.969328 -0.183703 4.18141e-20)
(0.981883 -0.158969 1.11624e-19)
(0.992219 -0.137008 1.54393e-19)
(1.0005 -0.11739 -1.32097e-20)
(1.00688 -0.0997961 -6.79206e-20)
(1.01153 -0.0837905 2.16226e-20)
(1.01423 -0.0696907 -1.97142e-19)
(1.01622 -0.0555892 1.22508e-19)
(0.898457 -0.324881 9.01163e-20)
(0.923049 -0.284237 -1.67953e-19)
(0.943548 -0.247668 -8.98533e-20)
(0.960608 -0.215361 -2.27088e-20)
(0.974964 -0.186864 -1.72222e-19)
(0.986872 -0.161702 -3.60974e-20)
(0.996644 -0.139345 -1.17026e-19)
(1.00442 -0.119358 1.98166e-19)
(1.01036 -0.101416 1.62819e-19)
(1.0146 -0.0850771 7.94238e-20)
(1.01696 -0.0706556 -9.27474e-20)
(1.0184 -0.0561216 -1.90305e-19)
(0.907892 -0.329686 -6.77521e-20)
(0.931388 -0.288613 1.88424e-20)
(0.950897 -0.25158 -4.29858e-20)
(0.967093 -0.218811 -2.64414e-20)
(0.980697 -0.189877 4.3945e-20)
(0.991953 -0.164308 1.34656e-20)
(1.00116 -0.141572 6.05454e-20)
(1.00843 -0.12123 -1.9815e-19)
(1.01393 -0.10295 -8.346e-20)
(1.01774 -0.0862901 -9.31191e-20)
(1.01979 -0.0715387 8.16275e-20)
(1.02059 -0.0565549 1.49304e-19)
(0.939833 -0.292745 -9.41587e-21)
(0.958349 -0.255287 1.12635e-19)
(0.973676 -0.222088 -4.4987e-20)
(0.986522 -0.192742 -1.23991e-19)
(0.997121 -0.166785 -2.02439e-19)
(1.00575 -0.143687 -6.11056e-20)
(1.01252 -0.123005 6.43662e-20)
(1.01758 -0.104398 2.70744e-20)
(1.02096 -0.0874303 1.19774e-19)
(1.02272 -0.0723317 -2.37894e-20)
(1.02279 -0.0568803 2.61142e-20)
(0.948376 -0.296632 5.14543e-20)
(0.965898 -0.258787 -6.17437e-20)
(0.980351 -0.225188 3.49082e-20)
(0.992434 -0.195456 5.70883e-20)
(1.00237 -0.169133 2.05609e-19)
(1.01042 -0.145689 1.20847e-19)
(1.01669 -0.124682 5.49782e-20)
(1.0213 -0.105759 -1.03516e-20)
(1.02425 -0.0884976 -8.81689e-20)
(1.02574 -0.0730278 2.07946e-20)
(1.02498 -0.0572559 -2.63858e-20)
(0.957009 -0.30027 1.68423e-19)
(0.973536 -0.262079 4.66097e-20)
(0.987113 -0.228112 1.43131e-19)
(0.99843 -0.198018 7.49148e-20)
(1.0077 -0.17135 -1.95044e-19)
(1.01518 -0.147578 -1.13534e-19)
(1.02093 -0.12626 1.09588e-19)
(1.0251 -0.107033 8.75976e-21)
(1.02762 -0.0894917 8.18863e-20)
(1.02887 -0.073651 -2.03528e-20)
(1.02719 -0.058055 2.08956e-20)
(0.965723 -0.303657 -1.97132e-19)
(0.981256 -0.265161 -9.63632e-20)
(0.993956 -0.230858 -2.62694e-19)
(1.0045 -0.200428 -1.66054e-20)
(1.01311 -0.173435 1.7435e-19)
(1.02 -0.149353 6.45529e-20)
(1.02524 -0.127739 -2.15579e-19)
(1.02897 -0.10822 -3.32352e-20)
(1.03107 -0.0904142 -1.05232e-19)
(1.03209 -0.0742181 1.50202e-20)
(1.02994 -0.0588037 -4.52931e-21)
(0.974509 -0.306792 1.84817e-19)
(0.989052 -0.268032 3.16269e-20)
(1.00087 -0.233425 1.76702e-19)
(1.01065 -0.202685 -2.92244e-20)
(1.01859 -0.175388 -2.67093e-20)
(1.0249 -0.151013 -4.24778e-20)
(1.02963 -0.129118 1.76565e-19)
(1.03292 -0.109318 7.81693e-20)
(1.03459 -0.0912625 -4.55209e-20)
(1.03538 -0.0747139 1.07288e-19)
(1.03293 -0.0594174 -1.27916e-19)
(0.996916 -0.27069 -1.04685e-19)
(1.00786 -0.235811 -1.09303e-19)
(1.01687 -0.204787 1.26113e-20)
(1.02414 -0.177209 2.47657e-20)
(1.02987 -0.152559 1.01632e-19)
(1.03408 -0.130398 -7.3032e-21)
(1.03693 -0.110327 -1.4844e-19)
(1.03819 -0.0920343 1.44e-19)
(1.03872 -0.0751383 -9.58733e-20)
(1.03603 -0.0599046 -1.28178e-20)
(1.00484 -0.273135 1.6358e-19)
(1.01491 -0.238017 7.92498e-20)
(1.02315 -0.206735 8.72147e-20)
(1.02975 -0.178896 1.47101e-20)
(1.03489 -0.153988 4.79613e-20)
(1.0386 -0.131577 1.03043e-20)
(1.04101 -0.111248 5.43023e-20)
(1.04188 -0.0927287 -1.22784e-19)
(1.04214 -0.0754959 1.6952e-19)
(1.03922 -0.0602817 2.01435e-19)
(1.01282 -0.275365 -1.49436e-19)
(1.02202 -0.240041 5.46582e-20)
(1.02949 -0.208528 -4.55941e-20)
(1.03542 -0.18045 -1.45503e-19)
(1.03999 -0.155303 -1.91999e-19)
(1.04318 -0.132657 -1.04183e-19)
(1.04516 -0.112081 -1.23516e-19)
(1.04563 -0.0933457 6.56307e-21)
(1.04564 -0.0757894 -2.55614e-19)
(1.04249 -0.0605698 6.23681e-20)
(1.02085 -0.277381 1.69292e-19)
(1.02919 -0.241884 -8.0217e-20)
(1.03589 -0.210166 3.89196e-22)
(1.04115 -0.181871 1.23572e-20)
(1.04513 -0.156502 7.87209e-20)
(1.04783 -0.133636 1.79295e-19)
(1.04938 -0.112826 1.23932e-19)
(1.04947 -0.0938853 2.81141e-20)
(1.04921 -0.0760194 1.66641e-19)
(1.04584 -0.0607741 -7.30372e-20)
(1.03639 -0.243544 1.02777e-19)
(1.04234 -0.211649 -7.87093e-20)
(1.04693 -0.183158 6.59594e-20)
(1.05034 -0.157586 6.88313e-20)
(1.05253 -0.134515 -1.04096e-19)
(1.05365 -0.113484 -7.91258e-21)
(1.05338 -0.0943479 1.38431e-20)
(1.05284 -0.0761865 -3.91665e-20)
(1.04926 -0.0608977 -4.57757e-20)
(1.04364 -0.245023 -1.29165e-19)
(1.04883 -0.212976 1.11022e-19)
(1.05276 -0.184312 -7.82152e-20)
(1.05559 -0.158554 -1.1211e-19)
(1.05728 -0.135295 3.35653e-20)
(1.05799 -0.114055 -7.49077e-20)
(1.05735 -0.0947343 -6.01904e-20)
(1.05655 -0.0762915 1.88783e-20)
(1.05277 -0.0609427 -6.5112e-20)
(1.05092 -0.246319 1.40211e-19)
(1.05536 -0.214148 -7.76888e-20)
(1.05863 -0.185333 1.22165e-19)
(1.06089 -0.159408 2.66835e-21)
(1.06209 -0.135976 -1.40417e-19)
(1.06238 -0.114541 4.44181e-20)
(1.0614 -0.0950451 8.04499e-21)
(1.06032 -0.0763352 1.66692e-20)
(1.05635 -0.0609115 1.4001e-19)
(1.06192 -0.215166 -1.0982e-21)
(1.06454 -0.186221 -1.4813e-20)
(1.06624 -0.160149 1.33302e-19)
(1.06695 -0.136558 1.85935e-19)
(1.06683 -0.114942 4.58343e-20)
(1.06551 -0.0952814 6.95377e-20)
(1.06415 -0.0763189 4.03459e-20)
(1.06001 -0.0608062 3.35767e-20)
(1.06852 -0.216029 3.34488e-20)
(1.07049 -0.186978 -7.23756e-20)
(1.07163 -0.160775 -1.26118e-19)
(1.07186 -0.137043 -1.14328e-19)
(1.07133 -0.11526 -2.56484e-20)
(1.06968 -0.0954442 -1.38787e-20)
(1.06805 -0.0762438 -3.7252e-20)
(1.06374 -0.0606294 -5.38542e-20)
(1.07514 -0.216739 -6.98071e-20)
(1.07647 -0.187603 3.88193e-20)
(1.07705 -0.161289 3.84227e-20)
(1.07681 -0.137431 -8.22034e-20)
(1.07589 -0.115495 -3.04333e-20)
(1.07391 -0.0955347 1.06242e-21)
(1.072 -0.0761114 -5.22335e-20)
(1.08248 -0.188098 1.10835e-20)
(1.08251 -0.161692 2.5981e-20)
(1.0818 -0.137724 1.91433e-19)
(1.08048 -0.115648 -2.46053e-21)
(1.0782 -0.0955543 -1.12097e-21)
(1.07601 -0.0759234 3.75692e-20)
(1.08851 -0.188463 -7.6031e-20)
(1.088 -0.161983 1.53775e-20)
(1.08683 -0.137921 -1.30805e-19)
(1.08513 -0.115722 7.11492e-20)
(1.08253 -0.0955046 2.69809e-20)
(1.08008 -0.0756816 -9.78751e-21)
(1.09351 -0.162165 2.33238e-20)
(1.09189 -0.138026 8.47955e-20)
(1.08981 -0.115718 -1.37445e-20)
(1.08692 -0.095387 -3.28641e-20)
(1.0842 -0.075388 -7.01411e-20)
(1.09905 -0.162239 -1.77071e-20)
(1.09698 -0.138038 -1.40318e-20)
(1.09453 -0.115636 -2.44447e-20)
(1.09136 -0.0952033 3.37677e-20)
(1.08838 -0.0750448 3.68698e-20)
(1.10461 -0.162205 -1.60359e-20)
(1.1021 -0.137959 -4.27825e-20)
(1.09928 -0.115479 -5.33969e-20)
(1.09584 -0.0949553 -3.93912e-20)
(1.0926 -0.0746544 -1.42657e-20)
(1.10724 -0.137791 8.38714e-21)
(1.10407 -0.115248 1.29862e-19)
(1.10036 -0.094645 7.18776e-21)
(1.09687 -0.0742191 2.26279e-20)
(1.10888 -0.114945 -5.25731e-20)
(1.10491 -0.0942744 -2.83753e-20)
(1.10118 -0.0737414 7.63461e-22)
(1.11372 -0.114572 -4.2346e-20)
(1.1095 -0.0938455 -2.26657e-20)
(1.10553 -0.0732238 5.69076e-21)
(1.11412 -0.0933605 4.8549e-20)
(1.11876 -0.0928215 -6.50503e-20)
(1 -0.000827321 1.67757e-22)
(1.00005 -0.00244108 2.41706e-21)
(1.00016 -0.00402482 -1.14352e-21)
(1.00034 -0.00558155 -1.38367e-21)
(1.00056 -0.00712787 3.47416e-21)
(1.00084 -0.00867005 4.61176e-21)
(1.00117 -0.0102169 -6.64696e-21)
(1.00155 -0.0117745 -1.27945e-21)
(1.00199 -0.013349 1.35917e-20)
(1.00247 -0.014945 -3.4108e-20)
(1.003 -0.016567 2.37782e-20)
(1.00358 -0.0182183 -2.03306e-20)
(1.00421 -0.0199016 2.20982e-21)
(1.00489 -0.0216194 1.31183e-20)
(1.00563 -0.0233734 1.45827e-21)
(1.00641 -0.025165 -8.71002e-22)
(1.00726 -0.0269953 3.25537e-21)
(1.00816 -0.0288648 -3.42632e-21)
(1.00911 -0.0307738 2.03732e-20)
(1.01012 -0.0327222 -2.1829e-20)
(1.01119 -0.0347094 1.71282e-20)
(1.01233 -0.0367342 -1.28695e-20)
(1.01352 -0.0387943 -1.33063e-20)
(1.01477 -0.0408865 2.50014e-20)
(1.01609 -0.0430041 -4.24556e-20)
(1.01747 -0.04514 3.72582e-20)
(1.01891 -0.0472745 1.26178e-20)
(1.02038 -0.0494046 2.28882e-20)
(1.02189 -0.051452 -6.81779e-20)
(1.0233 -0.053433 5.04526e-20)
(0.999998 -0.000822143 -1.15048e-21)
(1.00004 -0.00243244 3.9524e-21)
(1.00014 -0.00400902 9.88992e-22)
(1.00029 -0.00555909 -4.64505e-21)
(1.00049 -0.00709772 -4.99636e-21)
(1.00073 -0.00863051 6.88522e-21)
(1.00103 -0.0101657 -4.76751e-21)
(1.00137 -0.0117098 1.18598e-20)
(1.00176 -0.0132684 -1.85055e-21)
(1.00219 -0.014846 -3.41443e-21)
(1.00267 -0.0164471 6.07919e-21)
(1.0032 -0.0180747 -1.39258e-20)
(1.00377 -0.0197316 3.40287e-22)
(1.00439 -0.0214201 1.9376e-20)
(1.00506 -0.0231419 1.28245e-20)
(1.00578 -0.0248983 -2.6642e-20)
(1.00655 -0.0266904 -2.32775e-21)
(1.00737 -0.0285188 -5.94809e-21)
(1.00825 -0.0303838 2.77289e-20)
(1.00918 -0.0322853 -1.00716e-20)
(1.01016 -0.0342231 -6.42961e-21)
(1.0112 -0.0361963 -7.87985e-21)
(1.0123 -0.0382031 2.28073e-21)
(1.01345 -0.0402409 4.92008e-20)
(1.01465 -0.0423048 -7.24767e-20)
(1.0159 -0.0443876 6.85411e-21)
(1.01717 -0.0464756 5.46164e-20)
(1.01845 -0.0485506 -4.96133e-21)
(1.01969 -0.0505448 -3.26489e-20)
(1.02079 -0.0524003 -4.34803e-20)
(0.999997 -0.000817585 4.88922e-23)
(1.00003 -0.00242374 2.84109e-21)
(1.00011 -0.00399576 1.80976e-21)
(1.00024 -0.00554285 -7.48059e-21)
(1.00042 -0.00707506 1.08092e-20)
(1.00063 -0.00860107 -2.46227e-21)
(1.00089 -0.0101285 5.27456e-22)
(1.00119 -0.0116636 1.19217e-21)
(1.00154 -0.0132119 -1.14779e-20)
(1.00192 -0.0147782 -1.11579e-20)
(1.00235 -0.0163657 6.44707e-21)
(1.00282 -0.0179783 3.08238e-21)
(1.00334 -0.0196188 2.12644e-20)
(1.0039 -0.0212896 -2.29517e-20)
(1.0045 -0.0229923 -6.13676e-21)
(1.00515 -0.0247285 2.45994e-20)
(1.00585 -0.0264992 -4.05675e-21)
(1.00659 -0.0283053 1.69108e-20)
(1.00739 -0.0301471 -2.74841e-20)
(1.00823 -0.0320249 1.55176e-20)
(1.00913 -0.0339383 -2.41191e-20)
(1.01007 -0.0358865 3.47922e-20)
(1.01107 -0.0378679 -2.27681e-20)
(1.01211 -0.0398793 1.06742e-20)
(1.0132 -0.0419149 1.2434e-21)
(1.01432 -0.0439654 -3.52213e-20)
(1.01545 -0.0460149 4.51324e-20)
(1.01658 -0.0480342 1.69283e-20)
(1.01768 -0.0499677 -4.05807e-20)
(1.01863 -0.0518081 6.90073e-20)
(0.999996 -0.000813022 -7.81068e-22)
(1.00002 -0.00241331 -2.0439e-21)
(1.00009 -0.00397992 4.99369e-21)
(1.0002 -0.00552225 -6.06409e-21)
(1.00035 -0.0070492 -6.26657e-21)
(1.00054 -0.00856939 8.32694e-22)
(1.00076 -0.0100901 -6.41125e-22)
(1.00102 -0.0116175 1.9901e-21)
(1.00132 -0.013157 -1.04953e-20)
(1.00166 -0.0147132 2.64359e-20)
(1.00204 -0.0162894 2.36387e-21)
(1.00245 -0.0178895 -9.20115e-21)
(1.00291 -0.0195165 -1.2847e-20)
(1.0034 -0.0211722 2.12204e-20)
(1.00394 -0.0228586 8.47735e-21)
(1.00452 -0.0245774 -3.63142e-20)
(1.00515 -0.0263295 3.14488e-21)
(1.00581 -0.0281157 2.0903e-20)
(1.00653 -0.0299364 -3.07981e-20)
(1.00728 -0.0317919 1.13364e-21)
(1.00809 -0.0336815 1.06218e-20)
(1.00894 -0.0356043 2.47757e-20)
(1.00983 -0.0375583 4.55674e-20)
(1.01077 -0.0395398 -9.46869e-21)
(1.01174 -0.0415424 -9.61968e-20)
(1.01275 -0.0435562 6.50792e-20)
(1.01376 -0.0455653 -1.06123e-20)
(1.01477 -0.0475405 2.29683e-20)
(1.01575 -0.0494415 -3.66532e-23)
(1.0166 -0.0512804 2.39518e-20)
(0.999994 -0.000807181 -6.57007e-23)
(1.00002 -0.00239799 2.84286e-21)
(1.00007 -0.00395583 -6.27786e-21)
(1.00016 -0.00548998 2.15914e-22)
(1.00029 -0.00700894 -8.06339e-22)
(1.00044 -0.00852065 -2.15612e-21)
(1.00063 -0.0100321 1.51681e-21)
(1.00085 -0.0115492 2.2413e-21)
(1.00111 -0.0130772 -7.13128e-21)
(1.0014 -0.0146204 -7.10738e-21)
(1.00173 -0.0161832 2.3113e-20)
(1.00209 -0.0177685 -1.8266e-20)
(1.00249 -0.019379 8.84577e-21)
(1.00292 -0.0210168 -2.35312e-20)
(1.00339 -0.022684 2.45391e-21)
(1.0039 -0.024382 2.01119e-20)
(1.00445 -0.0261118 7.55034e-21)
(1.00504 -0.0278743 -8.76595e-21)
(1.00567 -0.0296698 -8.16387e-21)
(1.00635 -0.0314983 -2.23632e-20)
(1.00706 -0.0333593 2.58766e-20)
(1.00782 -0.0352516 1.41693e-20)
(1.00862 -0.0371729 -1.05551e-20)
(1.00945 -0.0391193 -3.57117e-21)
(1.01031 -0.0410845 -3.85483e-20)
(1.0112 -0.0430587 3.1367e-20)
(1.0121 -0.045027 1.18297e-20)
(1.01301 -0.0469622 -2.72105e-20)
(1.01388 -0.0488333 6.21565e-20)
(1.01464 -0.050658 2.27706e-20)
(0.999993 -0.000799894 -1.96936e-21)
(1.00001 -0.00237778 6.94033e-21)
(1.00005 -0.00392357 2.50854e-21)
(1.00013 -0.00544636 3.03254e-21)
(1.00023 -0.00695421 -1.14147e-20)
(1.00035 -0.00845455 1.02576e-20)
(1.00051 -0.009954 -7.5567e-21)
(1.00069 -0.0114583 6.13855e-21)
(1.00091 -0.0129726 7.96408e-21)
(1.00115 -0.0145011 -2.16612e-20)
(1.00143 -0.0160479 3.29692e-20)
(1.00173 -0.0176159 -3.67076e-20)
(1.00207 -0.0192077 1.39187e-20)
(1.00245 -0.0208258 1.62672e-20)
(1.00285 -0.0224718 -2.68773e-20)
(1.0033 -0.0241471 1.93462e-20)
(1.00377 -0.025853 -8.7189e-21)
(1.00429 -0.02759 2.73341e-20)
(1.00484 -0.0293586 -1.63465e-20)
(1.00543 -0.0311588 4.29978e-21)
(1.00606 -0.0329898 2.1023e-20)
(1.00672 -0.0348504 -3.53598e-20)
(1.00742 -0.0367383 -3.7954e-20)