/*--------------------------------*- C++ -*----------------------------------*\
  =========                 |
  \\      /  F ield         | OpenFOAM: The Open Source CFD Toolbox
   \\    /   O peration     | Website:  https://openfoam.org
    \\  /    A nd           | Version:  7
     \\/     M anipulation  |
\*---------------------------------------------------------------------------*/
FoamFile
{
    version     2.0;
    format      ascii;
    class       volVectorField;
    location    "20";
    object      U;
}
// * * * * * * * * * * * * * * * * * * * * * * * * * * * * * * * * * * * * * //

dimensions      [0 1 -1 0 0 0 0];

internalField   nonuniform List<vector> 
12100
(
(-0.00679437 0.00261573 -2.12436e-20)
(-0.0290862 0.00451271 -2.52079e-20)
(-0.0593171 0.00501587 3.11127e-21)
(-0.0860395 0.00495932 -7.9602e-21)
(-0.110522 0.00469826 3.84821e-20)
(-0.13193 0.00440533 1.20881e-20)
(-0.150922 0.00413437 -1.68108e-20)
(-0.167847 0.00389871 1.78993e-20)
(-0.183075 0.0036947 -2.44038e-20)
(-0.196868 0.0035142 1.41966e-20)
(-0.20942 0.00334768 7.38842e-21)
(-0.220858 0.00318381 2.67229e-21)
(-0.23125 0.00300919 -8.63645e-21)
(-0.240613 0.00280995 -4.89976e-21)
(-0.248879 0.00256265 -3.21341e-21)
(-0.255887 0.00223563 1.33232e-20)
(-0.261644 0.00190224 -1.56135e-20)
(-0.265513 0.00128996 -3.31075e-21)
(-0.268332 0.00114138 3.83811e-21)
(-0.267674 0.000265239 -1.0774e-20)
(-0.00708409 0.00779207 1.08862e-21)
(-0.0293332 0.0134575 -1.58978e-20)
(-0.0591706 0.0149647 -3.30037e-20)
(-0.0853677 0.0147953 2.65006e-20)
(-0.109203 0.0140111 1.68388e-20)
(-0.129855 0.0131282 2.56012e-21)
(-0.147962 0.0123083 4.86101e-20)
(-0.163853 0.0115914 -7.80279e-20)
(-0.177873 0.0109667 4.74481e-20)
(-0.190257 0.0104095 -3.69012e-20)
(-0.201171 0.00989155 4.41284e-21)
(-0.210714 0.00937923 -2.12363e-20)
(-0.218919 0.0088332 7.691e-21)
(-0.225782 0.00821381 1.53726e-20)
(-0.231224 0.00745774 2.5617e-20)
(-0.23499 0.0064411 1.53742e-20)
(-0.237348 0.0054877 4.27152e-20)
(-0.236955 0.00348532 4.05164e-21)
(-0.236033 0.00317807 -3.47377e-20)
(-0.229176 0.000137953 2.57739e-20)
(-0.00765517 0.0128079 -6.03603e-21)
(-0.0298233 0.0221656 -2.27611e-20)
(-0.0588835 0.024668 3.23675e-20)
(-0.0840377 0.024386 2.48492e-20)
(-0.106589 0.0230756 -8.33156e-20)
(-0.125737 0.0215909 1.07657e-20)
(-0.142088 0.0202016 -8.17344e-20)
(-0.155932 0.0189748 6.58707e-21)
(-0.167568 0.0178928 -1.83467e-20)
(-0.177182 0.0169143 3.62925e-20)
(-0.18489 0.0159926 -1.13068e-20)
(-0.190736 0.0150731 1.28204e-20)
(-0.194702 0.014093 -1.29413e-20)
(-0.19674 0.0129912 -2.46331e-20)
(-0.196788 0.0116935 -2.82786e-20)
(-0.194291 0.00987498 -3.44397e-20)
(-0.190394 0.00847589 -6.94886e-20)
(-0.181665 0.00463995 2.57841e-20)
(-0.174391 0.0045767 2.16451e-20)
(-0.155745 -0.00144987 6.73487e-20)
(-0.0084917 0.0175649 3.04091e-20)
(-0.0305495 0.0304869 1.20604e-19)
(-0.0584665 0.0339662 -3.90397e-20)
(-0.0820753 0.0335707 -7.92435e-20)
(-0.102719 0.031729 -4.55646e-20)
(-0.119635 0.0296242 6.30796e-20)
(-0.133383 0.0276341 7.86029e-20)
(-0.144203 0.0258539 -5.6868e-21)
(-0.152332 0.0242595 -1.77766e-21)
(-0.157893 0.0227935 -1.05101e-19)
(-0.160937 0.0213911 -4.96208e-20)
(-0.161446 0.019979 2.31298e-20)
(-0.159335 0.0184753 2.85999e-21)
(-0.154492 0.0167985 2.25943e-20)
(-0.147007 0.0149315 -6.73458e-20)
(-0.135497 0.0121351 2.62386e-20)
(-0.123393 0.0105406 3.82371e-20)
(-0.102404 0.00453256 4.41321e-20)
(-0.0875611 0.00489707 -2.35326e-20)
(-0.0521142 -0.00406159 -5.4427e-20)
(-0.00957134 0.0219753 -8.27068e-20)
(-0.0315007 0.0382805 -2.35669e-20)
(-0.0579337 0.0427056 6.99823e-20)
(-0.0795143 0.0421923 3.62977e-20)
(-0.0976451 0.0398121 1.76982e-19)
(-0.111621 0.0370642 -1.63338e-19)
(-0.121948 0.0344348 -9.12616e-20)
(-0.128806 0.0320486 -4.35633e-21)
(-0.132361 0.0298766 -1.58553e-21)
(-0.132665 0.0278459 2.14463e-20)
(-0.1297 0.0258764 3.12865e-20)
(-0.123386 0.0238768 -8.43648e-20)
(-0.113578 0.0217553 1.01946e-19)
(-0.100033 0.0194044 5.19977e-20)
(-0.0833404 0.0169271 7.99875e-20)
(-0.0602936 0.0131056 -2.03202e-21)
(-0.0388307 0.01108 -1.89182e-20)
(-0.00198633 0.00405467 1.87188e-21)
(0.0207981 0.00288863 -2.84625e-20)
(0.0773217 -0.00649821 -5.06251e-20)
(-0.010867 0.0259653 5.38315e-20)
(-0.0326624 0.0454188 4.30449e-21)
(-0.0572993 0.0507405 -1.30322e-19)
(-0.076391 0.0500986 -6.41234e-20)
(-0.0914237 0.0471704 -2.0896e-19)
(-0.101769 0.0437545 -7.62203e-21)
(-0.107876 0.0404449 -1.08649e-20)
(-0.109859 0.037398 -1.79251e-20)
(-0.107807 0.034583 8.00312e-21)
(-0.101697 0.0319144 2.21069e-20)
(-0.0914416 0.0292997 1.74747e-19)
(-0.0768996 0.0266323 -1.11042e-21)
(-0.0578991 0.0238211 6.10011e-20)
(-0.0339455 0.0207608 -1.48355e-19)
(-0.00659567 0.0174386 1.91634e-20)
(0.0301899 0.0130759 -2.99659e-20)
(0.0619389 0.00981865 -2.38262e-20)
(0.118199 0.00313055 2.25034e-20)
(0.146868 -0.00092606 -4.96113e-20)
(0.231319 -0.00860052 4.99857e-20)
(-0.0123485 0.0294778 -1.37568e-19)
(-0.0340156 0.0517903 -2.41803e-19)
(-0.0565741 0.0579355 8.66476e-20)
(-0.0727369 0.0571444 -2.39201e-20)
(-0.0840993 0.0536561 1.88121e-19)
(-0.0901289 0.0495475 1.80063e-19)
(-0.0912164 0.0455198 -6.15847e-20)
(-0.0874034 0.0417643 8.52306e-20)
(-0.0786958 0.0382533 -1.16139e-19)
(-0.0649875 0.0348932 1.3585e-20)
(-0.046127 0.0315874 -3.58009e-20)
(-0.0219081 0.028218 5.61606e-20)
(0.00782936 0.0246816 -1.5115e-21)
(0.0438714 0.0210066 -5.14883e-20)
(0.0833866 0.0166045 1.34393e-19)
(0.136334 0.0123853 -5.18173e-20)
(0.177886 0.00709395 -4.37284e-20)
(0.258527 0.00179368 6.76938e-20)
(0.289255 -0.00501739 2.53347e-20)
(0.406784 -0.0106278 1.0909e-19)
(-0.0139849 0.0324737 1.0196e-19)
(-0.0355365 0.0573016 1.11338e-19)
(-0.0557604 0.064168 7.65754e-20)
(-0.0685685 0.0631934 2.71198e-19)
(-0.0756891 0.0591297 -5.97909e-20)
(-0.0767024 0.0543072 9.02008e-20)
(-0.0719338 0.049533 1.16855e-19)
(-0.0613421 0.0450379 -1.46549e-19)
(-0.0448369 0.0408051 3.52921e-19)
(-0.0222192 0.0367411 4.50764e-21)
(0.00672532 0.0327566 -2.24474e-19)
(0.0422566 0.0287326 -2.34411e-20)
(0.0844759 0.0245095 -2.16455e-19)
(0.134483 0.0204972 1.01947e-19)
(0.187654 0.0148992 -7.53064e-20)
(0.258838 0.0116751 7.82546e-20)
(0.310495 0.00368567 1.08898e-19)
(0.416726 0.00127016 4.22711e-20)
(0.448668 -0.00831696 -1.17875e-19)
(0.59714 -0.0116694 -1.01435e-19)
(-0.0157461 0.034933 -5.00161e-20)
(-0.0371954 0.0618798 2.92327e-20)
(-0.0548458 0.0693307 -2.32818e-19)
(-0.0638747 0.068121 -1.32567e-19)
(-0.0661621 0.0634633 -1.05367e-19)
(-0.0614073 0.0579131 -5.85548e-20)
(-0.0498563 0.0523819 -2.85918e-19)
(-0.0313646 0.0471473 5.15125e-20)
(-0.00572732 0.0422146 -2.89721e-19)
(0.0273597 0.0375027 -8.2828e-20)
(0.068153 0.0329445 5.16049e-20)
(0.116927 0.0284353 9.47512e-20)
(0.173617 0.0237052 -2.84123e-20)
(0.239369 0.0198227 1.10162e-19)
(0.308182 0.0131538 6.33367e-21)
(0.397113 0.0116778 -1.17997e-19)
(0.46176 0.00151823 8.23809e-21)
(0.586995 0.00205802 -1.64506e-19)
(0.62385 -0.00897957 3.02772e-20)
(0.790687 -0.00998622 -6.46384e-20)
(-0.0176048 0.0368539 1.91014e-19)
(-0.0389544 0.0654727 2.17022e-19)
(-0.0537953 0.073334 5.65807e-20)
(-0.0586016 0.0718182 2.3094e-19)
(-0.0554119 0.0665456 6.39166e-20)
(-0.0440365 0.0602671 1.42341e-19)
(-0.0246144 0.0539988 1.59566e-19)
(0.00313263 0.048076 1.46721e-19)
(0.03954 0.0425421 1.34442e-19)
(0.0850084 0.0373462 -1.10471e-19)
(0.139755 0.0324552 1.71384e-19)
(0.203939 0.0278086 1.67501e-19)
(0.277152 0.0229864 2.14822e-19)
(0.359699 0.0196893 -2.04186e-19)
(0.445998 0.0129154 1.8868e-20)
(0.548657 0.0128085 1.73709e-19)
(0.629634 0.00276732 -6.15644e-20)
(0.760088 0.00497966 9.26857e-22)
(0.806892 -0.0058647 -6.83727e-21)
(0.970636 -0.00455444 8.16132e-20)
(-0.0195374 0.0382513 -1.19668e-19)
(-0.0407649 0.0680498 -1.97111e-19)
(-0.0525417 0.076109 3.40487e-19)
(-0.0526332 0.0741962 -3.47016e-19)
(-0.0432253 0.0682896 -2.46834e-19)
(-0.0242091 0.0613054 -1.05357e-19)
(0.00442523 0.0543696 -4.58662e-20)
(0.0431213 0.0478913 -2.51108e-19)
(0.0923328 0.0419732 -1.47577e-19)
(0.152474 0.0366156 -2.34455e-20)
(0.223507 0.0318243 -7.43789e-20)
(0.30516 0.0275847 -4.92318e-20)
(0.396288 0.0233984 -1.15806e-19)
(0.495324 0.0209765 -5.77245e-20)
(0.598406 0.0156475 2.19413e-20)
(0.708664 0.0160374 -1.12053e-19)
(0.804014 0.00826987 1.21809e-20)
(0.924643 0.0108145 7.10814e-21)
(0.981312 0.00114475 -8.3004e-20)
(1.11915 0.00387039 5.48018e-20)
(-0.0215242 0.039154 1.12028e-19)
(-0.0425641 0.069601 8.73572e-20)
(-0.0509744 0.0776108 -3.95623e-19)
(-0.045769 0.0751931 -1.32376e-19)
(-0.0292443 0.0686431 1.39458e-19)
(-0.00131626 0.0610167 -7.33817e-20)
(0.0382246 0.053562 1.9891e-19)
(0.0899895 0.0467854 1.88289e-19)
(0.15445 0.0408719 -2.45285e-19)
(0.231781 0.0358867 -7.68824e-20)
(0.321239 0.0318545 2.39518e-19)
(0.42157 0.0287317 -2.69032e-19)
(0.530108 0.0260666 -2.41168e-19)
(0.643217 0.0248534 3.33478e-19)
(0.757543 0.0219217 -7.20321e-20)
(0.868609 0.0225018 3.49281e-20)
(0.968178 0.0174017 5.02287e-20)
(1.06847 0.0193453 -4.46272e-20)
(1.12671 0.0108236 1.21578e-19)
(1.22407 0.0131908 1.51943e-19)
(-0.0235492 0.0396014 -3.59036e-19)
(-0.0442693 0.0701354 -3.43902e-19)
(-0.0489268 0.0778216 2.53344e-19)
(-0.0376992 0.0747817 1.59738e-19)
(-0.0129252 0.0676039 8.47409e-20)
(0.0255324 0.0594677 -6.87965e-20)
(0.0781163 0.0517644 -1.23474e-19)
(0.145515 0.045127 6.18038e-20)
(0.227923 0.039834 7.6806e-21)
(0.324725 0.0359889 1.21686e-19)
(0.433727 0.0335645 -1.36566e-19)
(0.551929 0.0323368 -5.79591e-20)
(0.674321 0.0318642 1.88654e-19)
(0.795847 0.0321933 -2.4439e-19)
(0.911674 0.0314727 -1.35663e-20)
(1.01563 0.0321396 9.94945e-20)
(1.10549 0.0285656 -3.96385e-20)
(1.18067 0.0291989 -5.17166e-20)
(1.22889 0.0209095 6.51908e-21)
(1.28493 0.0214637 -6.87666e-20)
(-0.0255984 0.0396394 5.54843e-20)
(-0.0457713 0.0696773 3.61112e-19)
(-0.0461619 0.0767543 -1.12177e-19)
(-0.0279789 0.0729805 -1.43474e-20)
(0.00649979 0.06524 -1.1062e-19)
(0.0575449 0.0568349 -4.14401e-20)
(0.125788 0.0493325 3.69669e-20)
(0.211694 0.0435094 1.20821e-19)
(0.314548 0.0397049 3.35462e-20)
(0.432007 0.0379446 -2.54412e-19)
(0.559503 0.0379985 1.49694e-19)
(0.691555 0.0392451 8.55226e-20)
(0.820806 0.0411089 -1.10317e-19)
(0.94161 0.042789 1.73176e-19)
(1.048 0.0433105 1.33677e-19)
(1.13629 0.0433848 -3.43188e-20)
(1.20605 0.039813 1.17975e-21)
(1.25589 0.0385125 -5.28944e-21)
(1.28743 0.0294531 -1.68349e-19)
(1.31219 0.0278983 -2.34863e-19)
(-0.0276584 0.0393166 3.13584e-19)
(-0.0469285 0.0682652 -8.95932e-20)
(-0.0423573 0.0744554 -2.27459e-19)
(-0.0160027 0.0698632 3.00934e-19)
(0.0300515 0.0617113 2.64555e-19)
(0.0962439 0.053443 1.90203e-19)
(0.183157 0.0468327 1.74053e-19)
(0.290352 0.0427677 -5.96004e-20)
(0.415113 0.0415121 1.09815e-19)
(0.552166 0.0427666 1.03209e-19)
(0.693855 0.0458703 -8.58944e-20)
(0.832156 0.0496086 6.05736e-20)
(0.958632 0.053232 5.17614e-20)
(1.06823 0.0553176 -3.92546e-20)
(1.15625 0.0557667 9.36151e-20)
(1.22296 0.0541699 -1.03154e-19)
(1.26942 0.0496047 1.22942e-19)
(1.29763 0.0459637 2.40507e-19)
(1.31365 0.0358912 1.19358e-19)
(1.31992 0.0327753 1.88743e-19)
(-0.0297118 0.038678 -9.89613e-20)
(-0.0475662 0.0659587 5.38303e-20)
(-0.0370871 0.0709996 1.3177e-19)
(-0.000985008 0.0655695 -3.65121e-19)
(0.0590094 0.0572958 -6.17132e-20)
(0.143389 0.0498018 -3.07399e-19)
(0.252071 0.0450625 1.24655e-19)
(0.382482 0.0439197 -2.97277e-19)
(0.52844 0.0462583 1.15658e-19)
(0.680752 0.0511101 -2.72069e-19)
(0.828832 0.0571656 1.13978e-20)
(0.96337 0.062646 3.35747e-20)
(1.07705 0.0667675 -5.71194e-20)
(1.16714 0.0679575 -1.44151e-19)
(1.23235 0.0671047 -2.63849e-21)
(1.27676 0.0631101 1.74006e-19)
(1.30291 0.0573447 -1.46068e-19)
(1.3159 0.0513474 -3.33981e-19)
(1.32146 0.0408066 -2.49183e-19)
(1.31864 0.0366968 9.38172e-20)
(-0.0317272 0.0377595 3.13086e-21)
(-0.0474678 0.0628252 2.39354e-19)
(-0.0298223 0.0664992 -6.26398e-20)
(0.0180482 0.0603209 -2.12626e-20)
(0.0948736 0.0524176 6.9869e-20)
(0.200782 0.0466291 2.39735e-19)
(0.333792 0.0450084 -1.1738e-19)
(0.487418 0.0479812 -1.05364e-19)
(0.650647 0.054587 6.93023e-20)
(0.810429 0.0629057 1.53621e-19)
(0.954831 0.070974 -2.49208e-19)
(1.07572 0.0768241 1.88706e-19)
(1.16918 0.0799382 2.44861e-20)
(1.23618 0.0791887 6.4141e-20)
(1.27932 0.076325 -1.40357e-19)
(1.30516 0.0699505 -4.0428e-20)
(1.31684 0.0633046 -3.79219e-20)
(1.32095 0.055205 4.00506e-20)
(1.32042 0.0450268 1.45813e-19)
(1.31375 0.0400045 -3.11236e-19)
(-0.0336551 0.0365834 -2.64675e-20)
(-0.0463609 0.0589338 -2.32292e-20)
(-0.019927 0.0611144 2.66549e-19)
(0.042244 0.0544318 1.36987e-19)
(0.139264 0.0476649 -1.23683e-19)
(0.269911 0.0448353 3.54924e-20)
(0.428312 0.0477012 3.89981e-20)
(0.602131 0.0556565 3.44294e-19)
(0.77522 0.0664481 -2.88871e-19)
(0.93245 0.0772293 -4.08188e-19)
(1.06337 0.0857561 -4.0031e-19)
(1.16363 0.0904646 -8.87728e-20)
(1.23399 0.091427 2.43438e-20)
(1.27914 0.0883273 -1.38041e-19)
(1.30445 0.0833793 -1.16192e-20)
(1.3171 0.0752006 2.80658e-20)
(1.31988 0.0680489 -2.04947e-20)
(1.31941 0.0581776 2.81363e-19)
(1.31525 0.0491385 5.36596e-21)
(1.30764 0.0427233 2.92344e-19)
(-0.0354223 0.0351594 2.25468e-20)
(-0.0439203 0.0543645 -3.02589e-19)
(-0.00665473 0.0550422 7.8838e-20)
(0.072883 0.0483206 -2.64106e-19)
(0.193724 0.0437988 3.34371e-19)
(0.35144 0.0454361 -2.24941e-19)
(0.533679 0.053952 9.11523e-21)
(0.721164 0.0670164 -1.86456e-20)
(0.894274 0.0809891 -2.28999e-19)
(1.03909 0.0925882 5.59477e-19)
(1.14956 0.0999441 2.35315e-19)
(1.22657 0.102401 -3.35918e-20)
(1.27524 0.100756 -1.17814e-19)
(1.30271 0.0954757 -2.1191e-19)
(1.31537 0.0887742 -5.89284e-21)
(1.31959 0.0795141 -9.65746e-20)
(1.31744 0.0719777 8.3272e-20)
(1.31464 0.0608126 -4.22358e-20)
(1.30815 0.053468 -3.25579e-19)
(1.30138 0.0446557 -1.27939e-19)
(-0.036942 0.0335015 -1.62943e-19)
(-0.0397538 0.0491918 2.08904e-19)
(0.0108389 0.0485214 -1.81726e-19)
(0.1113 0.0425301 -1.98345e-19)
(0.259399 0.0417359 -3.66294e-19)
(0.444609 0.0493626 1.4385e-19)
(0.64574 0.0640459 -9.91841e-20)
(0.837564 0.0813702 -2.86816e-19)
(1.00064 0.0968183 2.47876e-19)
(1.12576 0.10749 -1.99377e-19)
(1.21293 0.112488 2.86284e-19)
(1.26795 0.112231 3.27653e-19)
(1.29881 0.108119 1.76017e-19)
(1.31344 0.101103 2.67631e-19)
(1.31787 0.0931075 -4.49402e-20)
(1.31709 0.0833282 6.47396e-20)
(1.3124 0.0753189 -2.38667e-20)
(1.3083 0.0636422 1.47043e-19)
(1.30026 0.0579058 7.25539e-20)
(1.29538 0.0454449 8.33396e-20)
(-0.0381087 0.0316079 8.48444e-19)
(-0.0334128 0.0434872 -2.12379e-19)
(0.0334726 0.0418547 1.85533e-19)
(0.158739 0.037754 2.25477e-19)
(0.336603 0.0424566 3.45432e-19)
(0.54681 0.0571835 -1.82276e-19)
(0.758668 0.077561 1.06944e-19)
(0.944608 0.0974702 -1.44089e-19)
(1.08968 0.112511 -2.64407e-19)
(1.19162 0.120919 1.36308e-19)
(1.25625 0.123017 -2.42838e-19)
(1.29278 0.120132 -1.5322e-19)
(1.31033 0.113986 1.74865e-20)
(1.3163 0.105708 7.39117e-20)
(1.31571 0.0968423 -1.39124e-20)
(1.31209 0.0868381 1.30811e-19)
(1.3062 0.0783298 1.40921e-20)
(1.30125 0.066997 -3.41036e-19)
(1.29259 0.0615941 1.53129e-19)
(1.28927 0.0445958 -1.41326e-19)
(-0.0387917 0.0294709 -5.95982e-19)
(-0.0244065 0.0373495 2.54232e-19)
(0.0622177 0.035415 -2.65335e-20)
(0.216153 0.0348117 -1.29004e-19)
(0.424357 0.0467735 -3.84473e-19)
(0.653647 0.0688325 2.72534e-19)
(0.866219 0.0934504 -2.46571e-19)
(1.0374 0.113939 1.08695e-19)
(1.15992 0.127033 1.33534e-19)
(1.23863 0.132466 -5.66605e-19)
(1.2837 0.131665 1.08696e-19)
(1.30592 0.126526 1.93795e-20)
(1.31414 0.118834 2.36922e-19)
(1.3146 0.109689 -2.86378e-20)
(1.31108 0.100267 -3.08272e-20)
(1.30592 0.0901438 -2.24695e-20)
(1.29949 0.0813201 1.32334e-19)
(1.29392 0.070555 1.00533e-19)
(1.28558 0.0634834 3.20021e-20)
(1.28187 0.0518785 8.85612e-20)
(-0.0388413 0.0270794 -4.35068e-20)
(-0.0121981 0.0308824 -3.82563e-19)
(0.0980512 0.0296542 2.09172e-19)
(0.283933 0.0345743 1.37781e-19)
(0.520208 0.0550785 -1.1161e-19)
(0.759856 0.0836099 -3.45151e-19)
(0.963381 0.110445 2.3173e-19)
(1.11378 0.129714 -5.98019e-20)
(1.21252 0.139899 4.34015e-20)
(1.27022 0.142186 3.55105e-19)
(1.29953 0.138787 -1.89696e-19)
(1.3113 0.131849 -1.7499e-19)
(1.3133 0.123035 -1.60233e-19)
(1.31038 0.113313 -3.01722e-20)
(1.30521 0.10352 -1.17974e-20)
(1.29921 0.0933474 1.07796e-19)
(1.29254 0.0843875 -5.67207e-20)
(1.28665 0.0735116 -6.61169e-20)
(1.27845 0.067406 -1.51496e-19)
(1.27453 0.0543716 -1.01753e-19)
(-0.0380787 0.0244164 -1.84292e-20)
(0.00379186 0.0242152 2.2395e-19)
(0.141843 0.0251655 -3.91622e-19)
(0.361532 0.0378391 7.7538e-20)
(0.620344 0.067204 2.67043e-19)
(0.860365 0.100449 5.03121e-20)
(1.04707 0.127444 7.97939e-20)
(1.17382 0.144189 1.44193e-19)
(1.24997 0.151045 -1.62262e-19)
(1.28998 0.150355 -1.2027e-19)
(1.30725 0.144781 2.23591e-19)
(1.31172 0.136467 4.13927e-19)
(1.30972 0.12686 4.58909e-20)
(1.30482 0.116745 -1.62628e-19)
(1.29872 0.106693 6.07802e-21)
(1.29228 0.0965283 -1.3921e-19)
(1.28552 0.0872686 3.42186e-20)
(1.27936 0.0769651 -6.75868e-20)
(1.27145 0.0698641 -2.56571e-19)
(1.26762 0.0580671 1.33885e-19)
(-0.0363031 0.0214701 4.47432e-20)
(0.0241813 0.0175283 4.20473e-19)
(0.194208 0.0226918 -1.27415e-19)
(0.447243 0.0450845 3.47743e-19)
(0.720309 0.082457 -2.83597e-19)
(0.95133 0.118245 3.347e-19)
(1.11625 0.143692 -2.71912e-19)
(1.21909 0.157145 1.76117e-19)
(1.27523 0.16064 -1.14521e-19)
(1.30108 0.157319 1.20027e-20)
(1.30953 0.149996 -1.34479e-19)
(1.30909 0.140654 -2.34294e-19)
(1.30461 0.130481 -1.15725e-19)
(1.29854 0.120082 8.04674e-20)
(1.29194 0.109838 2.72863e-20)
(1.28526 0.0996206 7.52173e-20)
(1.27846 0.0902707 -1.82188e-20)
(1.27214 0.0799187 2.24841e-19)
(1.26457 0.0729016 2.16352e-19)
(1.26045 0.0611992 8.97625e-20)
(-0.0332943 0.0182398 -4.05077e-19)
(0.0496128 0.0110903 -3.79255e-19)
(0.25529 0.0230593 2.92569e-19)
(0.538276 0.0562894 -1.75653e-20)
(0.815934 0.0998761 4.04433e-19)
(1.03055 0.136116 -2.43374e-19)
(1.17141 0.158798 1.05758e-19)
(1.25182 0.168622 -1.36666e-19)
(1.29112 0.168961 2.56296e-19)
(1.30607 0.163408 -1.02019e-19)
(1.30828 0.154713 9.99447e-20)
(1.30463 0.144599 -6.77934e-21)
(1.29863 0.134005 7.84402e-20)
(1.29189 0.123378 -1.03278e-20)
(1.28499 0.112956 1.20419e-19)
(1.27818 0.102712 2.4762e-20)
(1.27138 0.0931101 -4.32501e-21)
(1.26496 0.083028 -1.53413e-19)
(1.25767 0.0754943 -5.88884e-20)
(1.25345 0.0640829 -8.57698e-20)
(-0.0288101 0.0147394 5.81974e-19)
(0.080715 0.00530927 -3.67699e-19)
(0.324543 0.0270078 9.30416e-20)
(0.631184 0.0709541 -3.63961e-19)
(0.904035 0.118524 -2.54602e-19)
(1.09732 0.153481 2.76911e-20)
(1.21393 0.172634 4.95816e-20)
(1.2744 0.178795 -1.38571e-19)
(1.30005 0.1763 2.51355e-20)
(1.30688 0.168903 1.95898e-19)
(1.3048 0.159134 -1.44247e-19)
(1.29908 0.148426 -8.64798e-20)
(1.29217 0.137492 -4.76397e-20)
(1.28502 0.126654 -4.29507e-20)
(1.27796 0.11607 -5.51925e-20)
(1.27106 0.105726 1.04011e-19)
(1.26427 0.0959811 -5.09119e-20)
(1.25781 0.0858951 -1.06748e-20)
(1.25082 0.0780903 1.40983e-19)
(1.24634 0.0669221 1.53474e-19)
(-0.0225801 0.0110041 -1.38338e-19)
(0.118023 0.000776522 3.41428e-19)
(0.400614 0.0349707 2.02142e-19)
(0.722508 0.08831 -2.27649e-19)
(0.982651 0.137659 2.80181e-19)
(1.15198 0.170026 -1.64369e-21)
(1.2456 0.185243 2.50132e-19)
(1.289 0.187896 1.62731e-19)
(1.30394 0.18293 1.4405e-19)
(1.30489 0.174024 -1.38587e-19)
(1.29991 0.163401 9.68142e-20)
(1.29289 0.152209 1.02197e-19)
(1.28541 0.140974 1.71317e-19)
(1.27802 0.129926 -9.06182e-20)
(1.27084 0.119162 -1.2689e-22)
(1.2639 0.108716 -8.7411e-20)
(1.25713 0.0987495 3.3698e-21)
(1.25067 0.0887334 -3.91146e-20)
(1.24392 0.080544 -8.3225e-20)
(1.23925 0.0695128 -3.17791e-20)
(-0.0142992 0.00710222 -1.26177e-19)
(0.161855 -0.00173737 -1.37992e-19)
(0.481438 0.0469405 -6.97379e-21)
(0.809333 0.107565 2.15809e-19)
(1.05092 0.156773 -2.09516e-19)
(1.19554 0.185622 -2.27608e-19)
(1.26827 0.196756 8.66072e-20)
(1.29751 0.196164 -1.01974e-19)
(1.30426 0.189076 -6.47255e-20)
(1.30103 0.178931 2.52622e-20)
(1.29413 0.167604 -2.19183e-19)
(1.28628 0.155988 2.01917e-19)
(1.27845 0.144464 -1.95609e-20)
(1.2709 0.133191 -4.5007e-20)
(1.26366 0.12224 4.06084e-20)
(1.2567 0.111639 -6.2033e-20)
(1.24996 0.101492 -5.55029e-20)
(1.24352 0.0914383 -3.30339e-21)
(1.23699 0.0828955 -4.13296e-20)
(1.23212 0.0720254 7.82261e-20)
(-0.00362719 0.00315322 1.45374e-19)
(0.212178 -0.00137265 2.50646e-19)
(0.564523 0.0625177 -3.35192e-19)
(0.889565 0.128057 -1.2371e-19)
(1.10881 0.17555 -5.57716e-20)
(1.22929 0.200264 3.18832e-19)
(1.28365 0.207349 -8.4735e-20)
(1.30145 0.203817 -5.26386e-20)
(1.30206 0.194918 -7.29353e-20)
(1.29593 0.183734 8.75574e-20)
(1.28777 0.171798 3.24518e-20)
(1.2794 0.159784 -3.78907e-20)
(1.27134 0.147963 -1.01733e-19)
(1.26369 0.136449 1.04308e-20)
(1.25641 0.125288 -4.41598e-20)
(1.24944 0.114517 7.93344e-20)
(1.24274 0.10416 1.95773e-20)
(1.23636 0.0940584 2.06882e-20)
(1.23001 0.0851571 2.82601e-20)
(1.22498 0.0743791 -8.22894e-20)
(0.00979779 -0.000651311 -2.73608e-19)
(0.268508 0.00264754 -1.56452e-20)
(0.647326 0.0810968 -5.12592e-20)
(0.961942 0.149294 1.46209e-19)
(1.1568 0.193815 -5.03314e-20)
(1.25461 0.214017 -1.40111e-19)
(1.29325 0.217202 -1.96159e-19)
(1.30199 0.211045 1.37306e-19)
(1.29811 0.200589 -1.60888e-19)
(1.28998 0.188506 7.98387e-20)
(1.281 0.176011 4.69747e-20)
(1.27229 0.163601 -2.46958e-20)
(1.26408 0.151469 5.83248e-20)
(1.25637 0.139691 6.5656e-20)
(1.24907 0.128306 -1.40037e-19)
(1.24212 0.117332 1.05572e-19)
(1.23548 0.106776 9.39679e-21)
(1.22915 0.0965743 1.8374e-20)
(1.22297 0.087318 8.91094e-20)
(1.21782 0.0766331 2.23444e-20)
(0.0263163 -0.00402417 8.13285e-20)
(0.329895 0.0108338 -3.25511e-19)
(0.727566 0.102052 3.03624e-19)
(1.02588 0.170933 1.3743e-19)
(1.19569 0.211487 -1.01978e-19)
(1.27284 0.226984 -1.67433e-19)
(1.2983 0.22649 5.74417e-21)
(1.30004 0.217995 -3.27545e-20)
(1.29291 0.20618 2.76727e-19)
(1.28343 0.193288 -1.26116e-19)
(1.27392 0.180253 -1.45105e-20)
(1.26498 0.167437 3.3321e-20)
(1.25668 0.154973 -2.07282e-20)
(1.24893 0.142913 -4.26692e-20)
(1.24164 0.131281 1.20536e-19)
(1.23473 0.12009 -9.94899e-20)
(1.22815 0.109324 1.22691e-20)
(1.2219 0.098993 -5.66874e-20)
(1.21586 0.0893974 -6.02737e-20)
(1.21065 0.0787723 -1.96145e-20)
(0.0461917 -0.0065776 -5.87384e-20)
(0.395019 0.0233271 1.36129e-19)
(0.803418 0.124836 -1.22887e-19)
(1.0813 0.192739 -1.26476e-19)
(1.22643 0.228548 2.08966e-19)
(1.28517 0.239284 2.20847e-19)
(1.29983 0.235363 1.06439e-19)
(1.29623 0.224782 -1.80272e-21)
(1.28681 0.21175 -2.71913e-19)
(1.27642 0.198097 2.29481e-20)
(1.26656 0.184523 8.64914e-21)
(1.25749 0.171282 5.85442e-20)
(1.24914 0.158464 9.61183e-20)
(1.24138 0.146102 -5.07054e-21)
(1.23412 0.134209 -2.209e-20)
(1.22726 0.122782 8.93388e-20)
(1.22076 0.111805 -5.86546e-20)
(1.2146 0.101313 7.25311e-20)
(1.20869 0.0913895 -6.52602e-21)
(1.20345 0.0808151 7.50706e-20)
(0.0695599 -0.00784399 1.02235e-19)
(0.462343 0.0399282 5.33676e-20)
(0.873569 0.149 -1.20713e-19)
(1.12842 0.214539 -1.48465e-19)
(1.24997 0.245016 -1.04976e-20)
(1.29266 0.251035 -2.42761e-20)
(1.29861 0.243943 1.18923e-19)
(1.29102 0.231484 8.27089e-20)
(1.28 0.217331 8.88614e-20)
(1.26903 0.202938 -3.22249e-20)
(1.25895 0.188811 4.24745e-20)
(1.2498 0.175124 -3.91157e-20)
(1.24144 0.161932 -7.96962e-20)
(1.23371 0.14925 9.69381e-21)
(1.22649 0.137079 2.07976e-20)
(1.21971 0.125406 2.4906e-20)
(1.2133 0.114212 3.33477e-20)
(1.20724 0.103533 -2.01735e-20)
(1.20147 0.0933045 3.9128e-20)
(1.19624 0.0827627 -9.06234e-20)
(0.0963879 -0.00732354 1.35073e-19)
(0.530273 0.0602191 -1.20742e-20)
(0.937196 0.174184 1.69599e-19)
(1.16767 0.236201 1.02764e-19)
(1.26725 0.260928 4.58044e-20)
(1.29619 0.262343 -1.11891e-19)
(1.29524 0.252325 -1.05849e-19)
(1.28473 0.238149 -2.93415e-20)
(1.27263 0.222935 -7.89088e-21)
(1.26128 0.207802 -7.66799e-21)
(1.25108 0.193103 -1.02461e-19)
(1.24191 0.178947 2.2497e-20)
(1.23357 0.165361 4.06671e-20)
(1.2259 0.152343 1.17872e-21)
(1.21875 0.139883 4.92851e-21)
(1.21206 0.127953 -1.26846e-20)
(1.20577 0.116538 -3.08833e-20)
(1.19981 0.105654 -2.57469e-20)
(1.19418 0.0951411 -5.40663e-20)
(1.18899 0.084621 8.38903e-21)
(0.12646 -0.00455294 -8.29546e-20)
(0.597291 0.083697 5.12069e-20)
(0.993873 0.2001 -2.09671e-20)
(1.19959 0.257616 4.91275e-21)
(1.27912 0.276329 -1.88439e-19)
(1.29647 0.273302 4.65102e-20)
(1.29017 0.260575 2.98266e-20)
(1.27757 0.244803 -2.05026e-20)
(1.26476 0.228557 7.33446e-20)
(1.2532 0.212673 -1.12766e-21)
(1.24296 0.197379 3.20642e-20)
(1.23382 0.182733 3.7528e-20)
(1.22554 0.168737 -2.57675e-20)
(1.21795 0.15537 -3.04814e-20)
(1.21091 0.142609 -1.65196e-20)
(1.20433 0.130418 -1.78432e-20)
(1.19815 0.118777 1.56943e-20)
(1.19233 0.107674 1.82129e-20)
(1.18683 0.096903 2.94474e-20)
(1.1817 0.0863923 3.41351e-20)
(0.159391 0.000827248 -3.87186e-20)
(0.662038 0.109861 -7.51611e-21)
(1.04348 0.226517 -6.84038e-20)
(1.22477 0.278694 6.30648e-20)
(1.28634 0.291261 1.35284e-19)
(1.29409 0.283983 7.35624e-20)
(1.28371 0.268734 -3.30485e-20)
(1.26968 0.25145 -1.9152e-20)
(1.25643 0.234182 -4.34172e-20)
(1.24479 0.217529 4.17263e-20)
(1.23457 0.201618 -1.64911e-21)
(1.22551 0.186463 -2.06596e-20)
(1.21733 0.172042 -2.43324e-20)
(1.20985 0.158316 -2.33691e-20)
(1.20294 0.145248 4.86584e-20)
(1.1965 0.132791 -1.65061e-20)
(1.19046 0.120921 -1.7969e-20)
(1.18477 0.109592 -3.09394e-21)
(1.17942 0.0985889 -3.23684e-21)
(1.17436 0.0880771 -1.89408e-20)
(0.194663 0.00902875 -3.85205e-21)
(0.723358 0.138242 -5.0757e-20)
(1.08611 0.253241 2.33839e-20)
(1.24382 0.29936 -8.28164e-20)
(1.28956 0.30576 -5.75467e-20)
(1.2895 0.294436 8.51087e-21)
(1.2761 0.276819 -8.88111e-22)
(1.26112 0.258079 3.78759e-21)
(1.24767 0.239786 1.17588e-20)
(1.23603 0.222343 2.07799e-20)
(1.22591 0.205794 -2.82507e-20)
(1.21697 0.190116 1.20031e-20)
(1.20894 0.175258 2.09909e-20)
(1.20161 0.161166 -4.56573e-21)
(1.19486 0.147786 -2.04476e-20)
(1.18858 0.135063 1.15486e-20)
(1.18269 0.122962 1.32181e-20)
(1.17716 0.111405 1.34633e-20)
(1.17196 0.100198 -6.91064e-21)
(1.16698 0.089675 2.53518e-21)
(0.231657 0.0201083 4.29937e-20)
(0.780322 0.168408 -5.91983e-20)
(1.12199 0.280103 -8.02728e-21)
(1.25733 0.319557 3.38624e-20)
(1.28934 0.319852 5.43212e-20)
(1.28305 0.304689 -1.65527e-20)
(1.26749 0.284828 -4.70647e-20)
(1.25195 0.264666 4.648e-20)
(1.23846 0.245337 -1.25127e-20)
(1.22694 0.227085 -1.43654e-20)
(1.21698 0.209883 1.30553e-20)
(1.20821 0.193668 -6.48143e-21)
(1.20036 0.178367 -1.92688e-21)
(1.19322 0.163904 5.09659e-21)
(1.18666 0.150211 7.33076e-21)
(1.18056 0.137223 9.41154e-21)
(1.17485 0.124891 -1.68719e-20)
(1.16949 0.113112 -4.23604e-21)
(1.16444 0.101726 -1.05431e-21)
(1.15956 0.0911828 5.16887e-21)
(0.269664 0.0339933 -2.35976e-20)
(0.832219 0.199949 4.11557e-20)
(1.1514 0.306942 -5.08188e-21)
(1.26586 0.339237 -1.08933e-20)
(1.28615 0.333548 -3.53481e-20)
(1.27501 0.314752 1.6468e-20)
(1.25799 0.292745 1.07653e-20)
(1.24221 0.271177 -1.18536e-20)
(1.22882 0.250801 -1.92817e-21)
(1.21749 0.231724 5.60983e-21)
(1.20776 0.213855 -6.06093e-21)
(1.19922 0.197097 3.04735e-21)
(1.1916 0.181348 -6.62371e-21)
(1.18468 0.166512 3.79965e-21)
(1.17834 0.152509 7.87653e-22)
(1.17244 0.13926 -3.49311e-21)
(1.16693 0.126701 2.01598e-21)
(1.16175 0.114708 -3.158e-21)
(1.15687 0.103167 1.03305e-21)
(1.1521 0.0925959 3.71825e-21)
(0.307889 0.0505158 -1.69589e-20)
(0.878556 0.232477 3.60683e-20)
(1.17468 0.333596 -3.75301e-21)
(1.26994 0.358356 -1.39847e-20)
(1.28038 0.346851 -3.24643e-20)
(1.26558 0.324615 1.61867e-20)
(1.24768 0.300539 1.04494e-20)
(1.23189 0.277575 -9.31139e-21)
(1.21874 0.256139 -1.08806e-22)
(1.20769 0.236224 4.34725e-21)
(1.19825 0.217681 -3.82675e-21)
(1.18999 0.200377 -1.04936e-21)
(1.18265 0.18418 -2.28627e-21)
(1.176 0.168975 1.36602e-21)
(1.1699 0.154665 8.89059e-22)
(1.16424 0.141162 -3.50891e-21)
(1.15895 0.128382 3.93143e-21)
(1.15397 0.116187 -3.79128e-21)
(1.14926 0.104512 -9.31875e-22)
(1.14461 0.0939062 2.40246e-21)
(0.345545 0.0694154 4.90954e-20)
(0.91896 0.265584 -4.86592e-20)
(1.19207 0.359879 -3.46728e-20)
(1.26997 0.376869 4.46771e-20)
(1.27232 0.359755 5.04026e-20)
(1.25489 0.33426 -2.03786e-20)
(1.23658 0.308176 -3.34651e-20)
(1.22101 0.283821 3.63586e-20)
(1.20821 0.261316 -1.00762e-20)
(1.19753 0.240557 -1.17172e-20)
(1.18845 0.221336 9.13552e-21)
(1.18054 0.203486 -1.75158e-21)
(1.17351 0.186845 -4.22537e-21)
(1.16717 0.171274 1.33308e-21)
(1.16135 0.156667 6.53345e-21)
(1.15595 0.142917 7.69363e-21)
(1.1509 0.129925 -9.6551e-21)
(1.14615 0.117541 -2.52702e-21)
(1.14164 0.105754 -1.6737e-21)
(1.13709 0.0951097 3.57716e-21)
(0.38208 0.0904589 2.18801e-20)
(0.953496 0.299005 -7.73309e-20)
(1.20405 0.385683 2.14289e-20)
(1.26641 0.394743 -5.53346e-20)
(1.26224 0.37223 -6.38402e-20)
(1.24306 0.343637 1.02717e-20)
(1.22474 0.315593 4.07107e-21)
(1.20957 0.289854 -4.11853e-21)
(1.19723 0.266278 1.33991e-20)
(1.18701 0.244674 -4.97757e-22)
(1.17835 0.22478 -8.59279e-21)
(1.17085 0.206391 1.74954e-21)
(1.16419 0.189313 1.67496e-20)
(1.1582 0.173387 -1.4594e-21)
(1.1527 0.158493 -5.72931e-21)
(1.14759 0.144511 -3.37094e-21)
(1.14279 0.131314 1.45392e-20)
(1.1383 0.118748 6.28103e-21)
(1.13401 0.106892 -3.67462e-21)
(1.12953 0.0962115 -4.43073e-21)
(0.416855 0.113396 -4.85693e-20)
(0.98213 0.33245 -9.24666e-21)
(1.21094 0.410847 -6.6734e-20)
(1.25961 0.41192 7.4028e-20)
(1.25036 0.384237 9.09845e-20)
(1.23017 0.352696 3.49559e-20)
(1.21216 0.32274 -6.22843e-21)
(1.19756 0.295627 7.00412e-21)
(1.18581 0.270983 -3.60072e-20)
(1.17613 0.248542 2.55965e-20)
(1.16797 0.227983 -7.6697e-21)
(1.16093 0.209067 -5.88062e-21)
(1.15471 0.191565 -1.60276e-20)
(1.1491 0.175295 -4.85021e-21)
(1.14395 0.160129 7.47888e-21)
(1.13916 0.14593 -4.9481e-21)
(1.13465 0.132543 -6.4711e-21)
(1.13043 0.119801 1.84812e-21)
(1.12635 0.107917 -1.10546e-21)
(1.12199 0.0972083 -9.89764e-21)
(0.449279 0.137957 -7.1823e-20)
(1.00494 0.365645 1.35274e-20)
(1.21307 0.435223 3.22652e-20)
(1.24988 0.42834 -3.50041e-20)
(1.23683 0.395726 -1.24511e-19)
(1.21627 0.361376 1.01063e-20)
(1.19886 0.329551 4.39637e-20)
(1.18499 0.301081 -1.62195e-20)
(1.17393 0.275384 3.43967e-20)
(1.16489 0.252118 -9.26691e-21)
(1.15732 0.230911 2.25224e-20)
(1.15079 0.21148 3.05647e-21)