/*--------------------------------*- C++ -*----------------------------------*\
  =========                 |
  \\      /  F ield         | OpenFOAM: The Open Source CFD Toolbox
   \\    /   O peration     | Website:  https://openfoam.org
    \\  /    A nd           | Version:  7
     \\/     M anipulation  |
\*---------------------------------------------------------------------------*/
FoamFile
{
    version     2.0;
    format      ascii;
    class       surfaceScalarField;
    location    "10";
    object      phi;
}
// * * * * * * * * * * * * * * * * * * * * * * * * * * * * * * * * * * * * * //

dimensions      [0 3 -1 0 0 0 0];

internalField   nonuniform List<scalar> 
5147
(
0.00419916
1.1767e-05
0.00418698
1.21807e-05
0.00417437
1.26057e-05
0.00416133
1.3041e-05
0.00414785
1.34856e-05
0.00413391
1.39379e-05
0.00411951
1.43962e-05
0.00410465
1.48583e-05
0.00408933
1.53216e-05
0.00407355
1.5783e-05
0.00405731
1.62392e-05
0.00404062
1.66861e-05
0.0040235
1.71194e-05
0.00400597
1.75341e-05
0.00398804
1.79251e-05
0.00396976
1.82866e-05
0.00395115
1.86126e-05
0.00393225
1.88968e-05
0.00391312
1.91326e-05
0.0038938
1.93136e-05
0.00387437
1.94334e-05
0.00385488
1.94858e-05
0.00383542
1.94651e-05
0.00381605
1.93666e-05
0.00379687
1.91861e-05
0.00377794
1.8921e-05
0.00375937
1.857e-05
0.00374124
1.81334e-05
0.00372363
1.76132e-05
0.00370661
1.70134e-05
0.00369027
1.63399e-05
0.00367467
1.56001e-05
0.00365987
1.48034e-05
0.00364591
1.396e-05
0.00363283
1.30819e-05
0.00362065
1.21804e-05
0.00360938
1.12692e-05
0.00359902
1.03579e-05
0.00358956
9.4616e-06
0.00358097
8.58487e-06
0.00357323
7.74551e-06
0.00356629
6.9378e-06
0.0035601
6.18761e-06
0.00355463
5.46948e-06
0.0035498
4.83026e-06
0.0035456
4.20651e-06
0.00354191
3.69221e-06
0.00353875
3.15166e-06
0.00353598
2.77088e-06
0.00353369
2.29294e-06
1.98267e-06
0.00414999
2.33998e-05
0.00413795
2.42224e-05
0.00412549
2.50671e-05
0.0041126
2.59325e-05
0.00409927
2.68162e-05
0.00408549
2.77153e-05
0.00407126
2.86263e-05
0.00405657
2.95448e-05
0.00404143
3.04657e-05
0.00402583
3.13829e-05
0.00400978
3.22896e-05
0.00399329
3.31778e-05
0.00397637
3.4039e-05
0.00395904
3.48633e-05
0.00394132
3.56403e-05
0.00392325
3.63587e-05
0.00390486
3.70064e-05
0.00388618
3.7571e-05
0.00386728
3.80395e-05
0.00384819
3.8399e-05
0.00382899
3.86367e-05
0.00380973
3.87404e-05
0.0037905
3.8699e-05
0.00377136
3.85026e-05
0.00375241
3.81435e-05
0.00373371
3.76161e-05
0.00371536
3.6918e-05
0.00369745
3.60495e-05
0.00368004
3.50151e-05
0.00366324
3.38224e-05
0.00364709
3.24831e-05
0.00363168
3.10122e-05
0.00361706
2.94281e-05
0.00360326
2.77513e-05
0.00359034
2.60055e-05
0.00357831
2.42134e-05
0.00356718
2.24015e-05
0.00355694
2.05903e-05
0.0035476
1.88077e-05
0.00353912
1.7066e-05
0.00353147
1.53955e-05
0.00352461
1.37927e-05
0.0035185
1.2297e-05
0.0035131
1.08761e-05
0.00350833
9.59524e-06
0.00350417
8.37075e-06
0.00350053
7.32512e-06
0.0034974
6.28566e-06
0.00349469
5.47624e-06
0.00349238
4.60539e-06
3.91124e-06
0.00410129
3.49031e-05
0.00408938
3.61294e-05
0.00407706
3.73887e-05
0.00406431
3.86787e-05
0.00405113
3.9996e-05
0.00403751
4.13362e-05
0.00402344
4.26942e-05
0.00400892
4.40633e-05
0.00399395
4.54358e-05
0.00397853
4.68029e-05
0.00396267
4.81542e-05
0.00394637
4.9478e-05
0.00392965
5.07612e-05
0.00391252
5.19896e-05
0.00389501
5.31473e-05
0.00387715
5.42176e-05
0.00385898
5.51826e-05
0.00384053
5.60235e-05
0.00382184
5.67211e-05
0.00380299
5.72561e-05
0.00378401
5.76096e-05
0.00376499
5.77633e-05
0.00374599
5.77006e-05
0.00372709
5.74068e-05
0.00370836
5.68704e-05
0.00368989
5.60833e-05
0.00367177
5.50414e-05
0.00365407
5.37459e-05
0.00363688
5.22028e-05
0.00362028
5.0424e-05
0.00360434
4.84266e-05
0.00358912
4.62331e-05
0.00357468
4.38709e-05
0.00356106
4.13707e-05
0.00354829
3.87675e-05
0.00353641
3.60956e-05
0.00352542
3.3394e-05
0.00351532
3.06939e-05
0.00350609
2.80358e-05
0.00349771
2.54399e-05
0.00349016
2.29484e-05
0.00348339
2.05606e-05
0.00347736
1.83283e-05
0.00347202
1.62141e-05
0.00346732
1.42987e-05
0.00346321
1.24825e-05
0.00345962
1.09102e-05
0.00345653
9.38123e-06
0.00345386
8.14424e-06
0.00345157
6.89185e-06
5.81209e-06
0.00405304
4.62814e-05
0.00404126
4.79061e-05
0.00402908
4.95747e-05
0.00401647
5.12837e-05
0.00400344
5.30289e-05
0.00398997
5.48045e-05
0.00397606
5.66035e-05
0.00396171
5.84171e-05
0.00394691
6.02353e-05
0.00393166
6.20461e-05
0.00391598
6.38359e-05
0.00389987
6.55891e-05
0.00388334
6.72886e-05
0.00386642
6.89152e-05
0.00384912
7.04481e-05
0.00383147
7.18651e-05
0.00381351
7.31423e-05
0.00379528
7.42551e-05
0.00377682
7.51779e-05
0.00375819
7.58853e-05
0.00373945
7.63519e-05
0.00372066
7.65539e-05
0.00370189
7.64689e-05
0.00368322
7.60779e-05
0.00366473
7.53654e-05
0.00364649
7.43206e-05
0.00362859
7.29384e-05
0.00361112
7.12201e-05
0.00359415
6.9174e-05
0.00357775
6.68154e-05
0.00356201
6.41676e-05
0.00354699
6.12598e-05
0.00353273
5.81289e-05
0.00351928
5.48151e-05
0.00350669
5.1365e-05
0.00349496
4.78241e-05
0.00348411
4.42438e-05
0.00347414
4.0666e-05
0.00346503
3.71433e-05
0.00345676
3.37041e-05
0.00344931
3.04019e-05
0.00344263
2.72395e-05
0.00343668
2.42796e-05
0.00343141
2.14817e-05
0.00342677
1.8939e-05
0.00342272
1.65402e-05
0.00341918
1.44459e-05
0.00341612
1.24372e-05
0.00341349
1.07737e-05
0.00341123
9.15138e-06
7.68441e-06
0.00400525
5.75387e-05
0.0039936
5.95566e-05
0.00398155
6.16289e-05
0.00396908
6.37514e-05
0.00395619
6.59187e-05
0.00394287
6.81238e-05
0.00392912
7.03576e-05
0.00391492
7.26097e-05
0.00390029
7.48672e-05
0.00388522
7.71154e-05
0.00386972
7.93374e-05
0.0038538
8.15139e-05
0.00383746
8.36234e-05
0.00382073
8.56422e-05
0.00380364
8.75445e-05
0.0037862
8.93025e-05
0.00376846
9.08869e-05
0.00375044
9.22668e-05
0.00373221
9.34107e-05
0.00371381
9.42867e-05
0.0036953
9.48637e-05
0.00367674
9.51118e-05
0.00365821
9.50035e-05
0.00363977
9.45151e-05
0.00362151
9.36272e-05
0.0036035
9.23267e-05
0.00358583
9.06071e-05
0.00356858
8.84702e-05
0.00355183
8.59263e-05
0.00353565
8.29945e-05
0.00352011
7.97035e-05
0.00350528
7.60899e-05
0.00349121
7.21993e-05
0.00347795
6.80818e-05
0.00346552
6.37953e-05
0.00345394
5.93962e-05
0.00344324
5.49482e-05
0.0034334
5.0504e-05
0.00342442
4.61278e-05
0.00341627
4.18563e-05
0.00340891
3.77538e-05
0.00340233
3.38272e-05
0.00339646
3.0149e-05
0.00339126
2.66771e-05
0.00338669
2.35146e-05
0.00338268
2.05425e-05
0.0033792
1.79311e-05
0.00337618
1.54524e-05
0.00337359
1.33639e-05
0.00337136
1.13828e-05
9.52771e-06
0.00395792
6.86788e-05
0.00394639
7.10845e-05
0.00393447
7.3555e-05
0.00392213
7.60853e-05
0.00390938
7.86689e-05
0.00389621
8.12973e-05
0.00388261
8.39599e-05
0.00386857
8.6644e-05
0.00385411
8.93345e-05
0.00383921
9.20137e-05
0.00382388
9.46614e-05
0.00380814
9.72546e-05
0.003792
9.97677e-05
0.00377547
0.000102172
0.00375857
0.000104438
0.00374135
0.000106531
0.00372381
0.000108417
0.00370602
0.000110059
0.00368801
0.00011142
0.00366984
0.000112461
0.00365156
0.000113145
0.00363323
0.000113437
0.00361493
0.000113304
0.00359673
0.000112717
0.0035787
0.000111655
0.00356093
0.0001101
0.00354349
0.000108046
0.00352647
0.000105495
0.00350993
0.000102458
0.00349397
9.8959e-05
0.00347864
9.50321e-05
0.00346401
9.0721e-05
0.00345013
8.60798e-05
0.00343704
8.11686e-05
0.00342478
7.6056e-05
0.00341337
7.08097e-05
0.00340281
6.55052e-05
0.00339311
6.02058e-05
0.00338425
5.49871e-05
0.00337621
4.98946e-05
0.00336896
4.50023e-05
0.00336247
4.03221e-05
0.00335668
3.59349e-05
0.00335156
3.17988e-05
0.00334705
2.80242e-05
0.00334311
2.4488e-05
0.00333967
2.1365e-05
0.0033367
1.84256e-05
0.00333415
1.59141e-05
0.00333195
1.35849e-05
1.13415e-05
0.00391105
7.97053e-05
0.00389964
8.24935e-05
0.00388784
8.53566e-05
0.00387563
8.82888e-05
0.00386302
9.12827e-05
0.00384999
9.43282e-05
0.00383654
9.74133e-05
0.00382266
0.000100523
0.00380835
0.00010364
0.00379362
0.000106743
0.00377847
0.00010981
0.00376291
0.000112813
0.00374696
0.000115724
0.00373062
0.000118508
0.00371393
0.00012113
0.00369691
0.000123553
0.00367959
0.000125735
0.00366202
0.000127634
0.00364423
0.000129206
0.00362628
0.000130408
0.00360823
0.000131196
0.00359014
0.000131529
0.00357207
0.000131369
0.00355411
0.000130684
0.00353631
0.000129447
0.00351877
0.00012764
0.00350157
0.000125254
0.00348477
0.000122291
0.00346846
0.000118767
0.00345271
0.000114707
0.00343759
0.000110152
0.00342316
0.000105151
0.00340947
9.97685e-05
0.00339657
9.40733e-05
0.00338448
8.81451e-05
0.00337323
8.20625e-05
0.00336282
7.59126e-05
0.00335326
6.97694e-05
0.00334452
6.37196e-05
0.0033366
5.78171e-05
0.00332946
5.21458e-05
0.00332306
4.67225e-05
0.00331736
4.16358e-05
0.00331231
3.68454e-05
0.00330787
3.24666e-05
0.00330398
2.83756e-05
0.0033006
2.47464e-05
0.00329767
2.13558e-05
0.00329516
1.84239e-05
0.00329299
1.57568e-05
1.31254e-05
0.00386463
9.06215e-05
0.00385334
9.37867e-05
0.00384166
9.70366e-05
0.00382958
0.000100365
0.0038171
0.000103763
0.00380421
0.00010722
0.0037909
0.000110721
0.00377717
0.000114249
0.00376303
0.000117786
0.00374846
0.000121307
0.00373349
0.000124786
0.00371811
0.000128193
0.00370234
0.000131493
0.0036862
0.00013465
0.0036697
0.000137623
0.00365289
0.000140369
0.00363578
0.000142841
0.00361842
0.000144992
0.00360086
0.000146771
0.00358314
0.000148129
0.00356532
0.000149017
0.00354746
0.000149388
0.00352963
0.0001492
0.0035119
0.000148415
0.00349434
0.000147004
0.00347704
0.000144945
0.00346006
0.00014223
0.00344349
0.00013886
0.00342741
0.000134852
0.00341188
0.000130238
0.00339697
0.00012506
0.00338274
0.000119379
0.00336924
0.000113263
0.00335652
0.000106794
0.00334461
0.000100061
0.00333352
9.31527e-05
0.00332326
8.61687e-05
0.00331384
7.91931e-05
0.00330523
7.23234e-05
0.00329743
6.56224e-05
0.00329039
5.91826e-05
0.00328409
5.30271e-05
0.00327847
4.72506e-05
0.0032735
4.18158e-05
0.00326913
3.68406e-05
0.0032653
3.22043e-05
0.00326197
2.80746e-05
0.00325909
2.42422e-05
0.00325662
2.08925e-05
0.00325448
1.78977e-05
1.4879e-05
0.00381866
0.000101431
0.00380748
0.000104967
0.00379592
0.000108598
0.00378397
0.000112317
0.00377162
0.000116113
0.00375886
0.000119974
0.0037457
0.000123884
0.00373212
0.000127826
0.00371814
0.000131775
0.00370374
0.000135707
0.00368893
0.000139591
0.00367373
0.000143394
0.00365814
0.000147078
0.00364219
0.000150601
0.0036259
0.000153918
0.00360929
0.000156981
0.00359239
0.000159737
0.00357525
0.000162133
0.00355791
0.000164114
0.00354041
0.000165623
0.00352282
0.000166608
0.00350519
0.000167014
0.0034876
0.000166796
0.0034701
0.00016591
0.00345278
0.000164324
0.00343571
0.000162015
0.00341897
0.000158972
0.00340263
0.000155199
0.00338677
0.000150713
0.00337146
0.000145549
0.00335676
0.000139757
0.00334274
0.000133402
0.00332944
0.000126563
0.00331691
0.00011933
0.00330517
0.000111801
0.00329424
0.000104079
0.00328414
9.62719e-05
0.00327485
8.84754e-05
0.00326638
8.07972e-05
0.00325869
7.33089e-05
0.00325176
6.61116e-05
0.00324556
5.92346e-05
0.00324003
5.2778e-05
0.00323514
4.67089e-05
0.00323083
4.11455e-05
0.00322706
3.59732e-05
0.00322379
3.13489e-05
0.00322095
2.70839e-05
0.00321852
2.33196e-05
0.00321641
2.00067e-05
1.6602e-05
0.00377315
0.000112135
0.00376207
0.000116037
0.00375063
0.000120044
0.0037388
0.000124146
0.00372658
0.000128334
0.00371396
0.000132594
0.00370094
0.000136907
0.00368751
0.000141254
0.00367367
0.00014561
0.00365943
0.000149945
0.0036448
0.000154228
0.00362977
0.00015842
0.00361437
0.00016248
0.00359861
0.000166362
0.00358251
0.000170016
0.0035661
0.000173389
0.00354942
0.000176423
0.00353249
0.000179059
0.00351537
0.000181236
0.0034981
0.000182893
0.00348074
0.000183969
0.00346334
0.000184408
0.00344598
0.000184156
0.00342873
0.000183168
0.00341164
0.000181408
0.00339481
0.000178849
0.0033783
0.000175481
0.00336219
0.000171307
0.00334656
0.000166347
0.00333147
0.00016064
0.00331698
0.00015424
0.00330316
0.00014722
0.00329006
0.000139666
0.00327771
0.000131678
0.00326615
0.000123366
0.00325539
0.00011484
0.00324544
0.000106221
0.0032363
9.7615e-05
0.00322796
8.91397e-05
0.00322039
8.08756e-05
0.00321357
7.29316e-05
0.00320746
6.5344e-05
0.00320202
5.82171e-05
0.00319721
5.15238e-05
0.00319297
4.53804e-05
0.00318926
3.96815e-05
0.00318604
3.45686e-05
0.00318325
2.98803e-05
0.00318086
2.57048e-05
0.00317878
2.20832e-05
1.82941e-05
0.00372808
0.000122738
0.00371711
0.000127
0.00370578
0.000131376
0.00369407
0.000135857
0.00368197
0.00014043
0.00366949
0.000145081
0.0036566
0.000149791
0.00364332
0.000154537
0.00362964
0.000159292
0.00361556
0.000164024
0.00360109
0.000168697
0.00358624
0.000173272
0.00357102
0.000177701
0.00355545
0.000181935
0.00353954
0.000185919
0.00352334
0.000189595
0.00350686
0.000192901
0.00349015
0.00019577
0.00347325
0.000198138
0.0034562
0.000199937
0.00343907
0.000201102
0.00342191
0.000201569
0.00340478
0.000201282
0.00338776
0.00020019
0.00337091
0.000198254
0.00335432
0.000195447
0.00333804
0.000191755
0.00332216
0.000187184
0.00330676
0.000181755
0.00329189
0.00017551
0.00327762
0.000168509
0.00326401
0.000160831
0.0032511
0.000152572
0.00323894
0.000143839
0.00322755
0.000134753
0.00321696
0.000125434
0.00320716
0.000116015
0.00319817
0.000106611
0.00318996
9.73499e-05
0.00318251
8.83215e-05
0.0031758
7.96418e-05
0.00316979
7.13545e-05
0.00316444
6.35672e-05
0.00315971
5.62597e-05
0.00315554
4.95447e-05
0.0031519
4.33285e-05
0.00314873
3.77333e-05
0.00314598
3.26308e-05
0.00314364
2.80476e-05
0.00314159
2.41267e-05
1.99552e-05
0.00368345
0.000133241
0.00367259
0.000137857
0.00366137
0.000142597
0.00364978
0.00014745
0.00363781
0.000152402
0.00362545
0.000157438
0.0036127
0.000162538
0.00359956
0.000167676
0.00358603
0.000172822
0.00357211
0.000177944
0.00355781
0.000183002
0.00354313
0.000187951
0.00352809
0.000192742
0.0035127
0.000197321
0.00349699
0.000201628
0.00348099
0.0002056
0.00346472
0.000209171
0.00344822
0.000212268
0.00343154
0.000214821
0.00341472
0.000216757
0.00339781
0.000218005
0.00338088
0.000218497
0.00336399
0.000218172
0.00334721
0.000216975
0.0033306
0.000214864
0.00331424
0.000211808
0.0032982
0.000207795
0.00328255
0.000202829
0.00326737
0.000196935
0.00325273
0.000190158
0.00323867
0.000182563
0.00322527
0.000174236
0.00321256
0.00016528
0.00320059
0.000155811
0.00318938
0.000145961
0.00317895
0.000135861
0.00316931
0.000125653
0.00316046
0.000115462
0.00315239
0.000105427
0.00314506
9.56457e-05
0.00313846
8.62413e-05
0.00313255
7.72652e-05
0.00312729
6.88274e-05
0.00312263
6.0916e-05
0.00311854
5.36377e-05
0.00311496
4.69137e-05
0.00311185
4.08426e-05
0.00310914
3.53349e-05
0.00310684
3.03479e-05
0.00310483
2.61366e-05
2.1585e-05
0.00363926
0.000143646
0.00362851
0.000148612
0.0036174
0.000153709
0.00360592
0.000158927
0.00359407
0.000164252
0.00358184
0.000169667
0.00356923
0.000175149
0.00355623
0.000180672
0.00354285
0.000186204
0.00352909
0.000191708
0.00351495
0.000197142
0.00350044
0.000202458
0.00348558
0.000207604
0.00347038
0.00021252
0.00345486
0.000217144
0.00343906
0.000221406
0.00342299
0.000225234
0.00340671
0.000228553
0.00339024
0.000231286
0.00337365
0.000233353
0.00335697
0.000234681
0.00334027
0.000235194
0.00332362
0.000234828
0.00330707
0.000233524
0.0032907
0.000231236
0.00327457
0.000227932
0.00325877
0.0002236
0.00324336
0.000218243
0.0032284
0.000211888
0.00321398
0.000204584
0.00320014
0.000196401
0.00318694
0.000187432
0.00317443
0.000177788
0.00316265
0.000167594
0.00315162
0.000156991
0.00314136
0.00014612
0.00313188
0.000135134
0.00312318
0.000124168
0.00311523
0.00011337
0.00310803
0.000102848
0.00310154
9.27295e-05
0.00309573
8.30756e-05
0.00309056
7.39974e-05
0.00308599
6.54922e-05
0.00308197
5.76591e-05
0.00307844
5.04367e-05
0.00307539
4.3896e-05
0.00307273
3.79921e-05
0.00307047
3.26054e-05
0.0030685
2.81125e-05
2.31834e-05
0.00359551
0.000153956
0.00358486
0.000159264
0.00357386
0.000164713
0.00356249
0.000170291
0.00355076
0.000175982
0.00353866
0.000181769
0.00352618
0.000187627
0.00351333
0.000193528
0.00350009
0.000199438
0.00348648
0.000205317
0.00347251
0.00021112
0.00345817
0.000216796
0.00344348
0.000222289
0.00342847
0.000227535
0.00341315
0.000232467
0.00339754
0.000237012
0.00338168
0.000241092
0.00336561
0.000244626
0.00334936
0.000247532
0.00333299
0.000249726
0.00331654
0.000251128
0.00330008
0.000251659
0.00328366
0.000251249
0.00326734
0.000249836
0.00325121
0.000247371
0.00323532
0.00024382
0.00321975
0.000239169
0.00320457
0.000233424
0.00318985
0.000226612
0.00317564
0.000218787
0.00316202
0.000210023
0.00314903
0.00020042
0.00313672
0.000190097
0.00312513
0.000179187
0.00311428
0.000167841
0.00310419
0.00015621
0.00309487
0.000144457
0.00308631
0.000132729
0.0030785
0.000121179
0.00307142
0.000109927
0.00306504
9.91061e-05
0.00305933
8.87853e-05
0.00305425
7.90767e-05
0.00304976
6.99878e-05
0.00304581
6.16084e-05
0.00304235
5.3897e-05
0.00303935
4.68934e-05
0.00303674
4.06021e-05
0.00303453
3.482e-05
0.00303258
3.0054e-05
2.47503e-05
0.0035522
0.000164171
0.00354165
0.000169817
0.00353075
0.000175611
0.0035195
0.000181542
0.00350788
0.000187594
0.00349591
0.000193746
0.00348356
0.000199973
0.00347085
0.000206245
0.00345776
0.000212525
0.0034443
0.000218771
0.00343049
0.000224936
0.00341632
0.000230965
0.00340181
0.000236797
0.00338698
0.000242367
0.00337185
0.0002476
0.00335644
0.00025242
0.00334078
0.000256745
0.00332492
0.000260487
0.00330889
0.000263561
0.00329274
0.000265877
0.00327652
0.000267348
0.00326029
0.000267893
0.0032441
0.000267436
0.00322803
0.000265912
0.00321213
0.000263269
0.00319648
0.000259471
0.00318114
0.000254504
0.00316619
0.000248373
0.0031517
0.000241109
0.00313772
0.000232767
0.00312431
0.000223429
0.00311153
0.0002132
0.00309942
0.000202206
0.00308802
0.000190589
0.00307735
0.000178511
0.00306743
0.000166131
0.00305826
0.000153623
0.00304985
0.000141143
0.00304218
0.000128854
0.00303522
0.000116883
0.00302895
0.000105371
0.00302335
9.43939e-05
0.00301836
8.4065e-05
0.00301394
7.44025e-05
0.00301007
6.54855e-05
0.00300667
5.72943e-05
0.00300373
4.98345e-05
0.00300117
4.31647e-05
0.00299899
3.69916e-05
0.00299709
3.19609e-05
2.62858e-05
0.00350931
0.000174294
0.00349886
0.000180271
0.00348807
0.000186405
0.00347693
0.000192683
0.00346543
0.000199088
0.00345358
0.000205598
0.00344136
0.000212188
0.00342879
0.000218823
0.00341584
0.000225467
0.00340254
0.000232073
0.00338889
0.000238592
0.00337488
0.000244966
0.00336055
0.000251131
0.0033459
0.000257015
0.00333096
0.000262543
0.00331575
0.000267631
0.0033003
0.000272193
0.00328465
0.000276138
0.00326884
0.000279373
0.00325291
0.000281805
0.00323692
0.000283341
0.00322091
0.000283896
0.00320496
0.000283389
0.00318912
0.000281752
0.00317346
0.00027893
0.00315804
0.000274886
0.00314294
0.000269603
0.00312823
0.000263089
0.00311396
0.000255377
0.0031002
0.000246524
0.00308701
0.000236619
0.00307444
0.000225771
0.00306253
0.000214115
0.00305132
0.000201802
0.00304083
0.000189001
0.00303108
0.000175883
0.00302207
0.000162631
0.0030138
0.000149411
0.00300626
0.000136393
0.00299943
0.000123715
0.00299328
0.000111523
0.00298777
9.99012e-05
0.00298287
8.8962e-05
0.00297854
7.87363e-05
0.00297473
6.92902e-05
0.0029714
6.06286e-05
0.00296852
5.27193e-05
0.002966
4.56795e-05
0.00296387
3.91201e-05
0.002962
3.38329e-05
2.77897e-05
0.00346686
0.000184325
0.0034565
0.000190627
0.00344581
0.000197095
0.00343478
0.000203713
0.0034234
0.000210465
0.00341167
0.000217328
0.00339959
0.000224272
0.00338714
0.000231265
0.00337435
0.000238264
0.0033612
0.000245224
0.0033477
0.000252089
0.00333387
0.000258801
0.00331971
0.00026529
0.00330524
0.000271482
0.00329049
0.000277296
0.00327547
0.000282645
0.00326023
0.000287438
0.00324479
0.000291579
0.00322919
0.000294969
0.00321348
0.000297511
0.00319772
0.000299108
0.00318194
0.000299669
0.00316622
0.000299109
0.00315062
0.000297357
0.0031352
0.000294355
0.00312002
0.000290064
0.00310515
0.000284468
0.00309067
0.000277574
0.00307663
0.000269417
0.00306309
0.000260059
0.00305012
0.000249593
0.00303776
0.000238133
0.00302605
0.000225824
0.00301503
0.000212824
0.00300472
0.000199311
0.00299513
0.000185466
0.00298628
0.000171481
0.00297816
0.000157532
0.00297076
0.000143798
0.00296405
0.000130425
0.00295801
0.000117563
0.0029526
0.000105307
0.0029478
9.37678e-05
0.00294354
8.29888e-05
0.00293981
7.30224e-05
0.00293654
6.38996e-05
0.00293371
5.55476e-05
0.00293124
4.81466e-05
0.00292916
4.12055e-05
0.00292732
3.56698e-05
2.92621e-05
0.00342482
0.000194266
0.00341456
0.000200888
0.00340397
0.000207682
0.00339305
0.000214635
0.00338179
0.000221728
0.00337018
0.000228935
0.00335822
0.000236228
0.00334592
0.00024357
0.00333327
0.000250918
0.00332027
0.000258223
0.00330693
0.000265428
0.00329326
0.000272469
0.00327927
0.000279275
0.00326499
0.000285767
0.00325042
0.00029186
0.00323561
0.000297464
0.00322056
0.000302481
0.00320533
0.00030681
0.00318995
0.00031035
0.00317447
0.000312997
0.00315893
0.000314649
0.00314338
0.000315211
0.0031279
0.000314596
0.00311253
0.000312726
0.00309734
0.000309543
0.00308239
0.000305007
0.00306776
0.000299098
0.00305351
0.000291827
0.0030397
0.000283229
0.00302639
0.000273372
0.00301363
0.00026235
0.00300147
0.000250287
0.00298997
0.000237333
0.00297913
0.000223655
0.002969
0.000209441
0.00295959
0.00019488
0.0029509
0.000180174
0.00294292
0.000165507
0.00293565
0.000151068
0.00292907
0.000137011
0.00292314
0.00012349
0.00291783
0.000110612
0.00291312
9.84823e-05
0.00290895
8.71603e-05
0.00290529
7.66821e-05
0.00290208
6.71074e-05
0.00289931
5.83196e-05
0.00289689
5.05658e-05
0.00289485
4.32479e-05
0.00289305
3.74714e-05
3.07032e-05
0.00338321
0.000204117
0.00337304
0.000211052
0.00336255
0.000218168
0.00335174
0.000225449
0.00334059
0.000232876
0.00332911
0.000240421
0.00331728
0.000248056
0.00330511
0.00025574
0.0032926
0.000263429
0.00327975
0.000271072
0.00326657
0.000278609
0.00325307
0.000285972
0.00323925
0.000293087
0.00322515
0.000299872
0.00321077
0.000306237
0.00319615
0.000312087
0.00318131
0.000317321
0.00316629
0.000321833
0.00315112
0.000325516
0.00313586
0.000328262
0.00312054
0.000329965
0.00310523
0.000330525
0.00308997
0.00032985
0.00307484
0.000327861
0.00305988
0.000324497
0.00304518
0.000319714
0.00303078
0.000313495
0.00301676
0.000305849
0.00300317
0.000296815
0.00299008
0.000286462
0.00297754
0.000274892
0.00296559
0.000262234
0.00295428
0.000248643
0.00294364
0.000234297
0.00293369
0.000219391
0.00292445
0.000204126
0.00291591
0.000188708
0.00290808
0.000173336
0.00290095
0.000158203
0.00289449
0.000143473
0.00288867
0.000129305
0.00288347
0.000115815
0.00287884
0.000103106
0.00287475
9.12506e-05
0.00287117
8.02694e-05
0.00286802
7.02519e-05
0.00286531
6.10353e-05
0.00286293
5.2937e-05
0.00286093
4.52473e-05
0.00285917
3.92379e-05
3.21129e-05
0.00334201
0.000213879
0.00333194
0.000221122
0.00332155
0.000228553
0.00331084
0.000236156
0.00329981
0.000243909
0.00328845
0.000251787
0.00327675
0.000259755
0.00326471
0.000267775
0.00325234
0.000275798
0.00323964
0.000283771
0.00322662
0.000291632
0.00321328
0.00029931
0.00319964
0.000306727
0.00318572
0.000313796
0.00317153
0.000320426
0.0031571
0.000326515
0.00314246
0.000331959
0.00312765
0.000336647
0.00311269
0.000340468
0.00309765
0.000343307
0.00308256
0.000345056
0.00306747
0.00034561
0.00305245
0.000344873
0.00303755
0.000342763
0.00302283
0.000339215
0.00300836
0.000334186
0.0029942
0.000327658
0.0029804
0.00031964
0.00296705
0.000310173
0.00295418
0.000299331
0.00294185
0.000287219
0.00293011
0.000273972
0.002919
0.000259754
0.00290855
0.00024475
0.00289878
0.000229163
0.0028897
0.000213202
0.00288132
0.000197086
0.00287364
0.000181019
0.00286664
0.000165203
0.0028603
0.000149813
0.0028546
0.000135009
0.00284949
0.000120917
0.00284496
0.000107638
0.00284095
9.526e-05
0.00283744
8.37845e-05
0.00283435
7.33333e-05
0.0028317
6.36948e-05
0.00282937
5.52604e-05
0.00282742
4.7204e-05
0.00282568
4.0969e-05
3.34914e-05
0.00330122
0.000223552
0.00329124
0.000231098
0.00328096
0.000238838
0.00327036
0.000246756
0.00325944
0.00025483
0.00324819
0.000263032
0.00323662
0.000271328
0.00322472
0.000279675
0.00321249
0.000288026
0.00319994
0.000296322
0.00318708
0.000304499
0.0031739
0.000312484
0.00316044
0.000320194
0.00314669
0.000327542
0.00313269
0.000334428
0.00311845
0.00034075
0.00310402
0.000346397
0.00308941
0.000351254
0.00307467
0.000355205
0.00305985
0.000358133
0.00304498
0.000359923
0.00303012
0.000360466
0.00301533
0.000359664
0.00300066
0.000357431
0.00298618
0.000353699
0.00297194
0.000348424
0.00295801
0.000341588
0.00294445
0.0003332
0.00293132
0.000323305
0.00291867
0.000311979
0.00290656
0.000299332
0.00289502
0.000285504
0.00288411
0.000270667
0.00287385
0.000255014
0.00286425
0.000238755
0.00285535
0.000222111
0.00284713
0.000205307
0.00283959
0.000188557
0.00283272
0.00017207
0.0028265
0.00015603
0.00282091
0.000140601
0.00281591
0.000125919
0.00281147
0.00011208
0.00280754
9.91887e-05
0.0028041
8.72276e-05
0.00280108
7.63518e-05
0.00279847
6.62983e-05
0.0027962
5.75361e-05
0.00279429
4.91181e-05
0.00279259
4.26648e-05
3.48389e-05
0.00326084
0.000233138
0.00325096
0.000240979
0.00324078
0.000249022
0.00323028
0.000257249
0.00321948
0.000265637
0.00320835
0.000274157
0.00319691
0.000282774
0.00318514
0.000291442
0.00317305
0.000300112
0.00316065
0.000308723
0.00314794
0.000317209
0.00313493
0.000325494
0.00312163
0.000333491
0.00310807
0.000341108
0.00309425
0.000348244
0.00308021
0.000354791
0.00306597
0.000360634
0.00305157
0.000365654
0.00303705
0.00036973
0.00302244
0.000372741
0.0030078
0.000374567
0.00299317
0.000375096
0.00297861
0.000374225
0.00296417
0.000371866
0.00294992
0.000367949
0.00293592
0.000362429
0.00292222
0.000355286
0.00290889
0.000346532
0.00289598
0.000336213
0.00288355
0.000324407
0.00287165
0.00031123
0.00286033
0.00029683
0.00284961
0.000281383
0.00283954
0.000265089
0.00283012
0.00024817
0.00282138
0.000230853
0.00281332
0.000213371
0.00280592
0.00019595
0.00279919
0.000178803
0.0027931
0.000162125
0.00278762
0.000146081
0.00278271
0.00013082
0.00277836
0.000116431
0.00277451
0.000103037
0.00277114
9.0599e-05
0.00276819
7.93074e-05
0.00276564
6.88461e-05
0.00276341
5.9764e-05
0.00276154
5.09898e-05
0.00275988
4.43253e-05
3.61555e-05
0.00322087
0.000242636
0.00321109
0.000250767
0.003201
0.000259106
0.00319061
0.000267636
0.00317992
0.000276332
0.00316891
0.000285163
0.00315759
0.000294093
0.00314596
0.000303075
0.00313402
0.000312057
0.00312176
0.000320977
0.00310921
0.000329764
0.00309636
0.00033834
0.00308324
0.000346616
0.00306985
0.000354496
0.00305622
0.000361874
0.00304237
0.000368638
0.00302833
0.00037467
0.00301414
0.000379847
0.00299983
0.000384042
0.00298544
0.00038713
0.00297102
0.000388988
0.00295662
0.000389498
0.00294228
0.000388556
0.00292808
0.000386069
0.00291406
0.000381967
0.00290029
0.000376201
0.00288682
0.000368753
0.00287372
0.000359635
0.00286104
0.000348895
0.00284883
0.000336616
0.00283714
0.000322916
0.00282602
0.00030795
0.00281551
0.000291901
0.00280562
0.000274978
0.00279638
0.000257407
0.0027878
0.000239428
0.0027799
0.00022128
0.00277265
0.000203199
0.00276605
0.000185404
0.00276007
0.000168098
0.0027547
0.000151451
0.0027499
0.000135621
0.00274564
0.000120693
0.00274187
0.000106805
0.00273857
9.3899e-05
0.00273568
8.22006e-05
0.00273319
7.13385e-05
0.00273101
6.19445e-05
0.00272918
5.28193e-05
0.00272755
4.59507e-05
3.74415e-05
0.00318131
0.000252046
0.00317161
0.000260461
0.00316163
0.000269091
0.00315135
0.000277917
0.00314076
0.000286914
0.00312988
0.00029605
0.00311868
0.000305286
0.00310718
0.000314575
0.00309538
0.000323861
0.00308328
0.000333082
0.00307088
0.000342163
0.00305819
0.000351023
0.00304524
0.000359571
0.00303203
0.000367705
0.00301858
0.000375318
0.00300493
0.000382293
0.00299109
0.000388508
0.0029771
0.000393834
0.002963
0.000398142
0.00294883
0.000401302
0.00293463
0.000403186
0.00292046
0.000403675
0.00290636
0.000402658
0.00289238
0.000400042
0.0028786
0.000395752
0.00286506
0.000389742
0.00285182
0.00038199
0.00283894
0.000372511
0.00282649
0.000361354
0.0028145
0.000348606
0.00280302
0.00033439
0.00279211
0.000318866
0.00278178
0.000302224
0.00277208
0.000284679
0.00276302
0.000266468
0.00275461
0.000247837
0.00274686
0.000229035
0.00273975
0.000210304
0.00273328
0.000191872
0.00272743
0.000173951
0.00272217
0.000156711
0.00271747
0.000140323
0.0027133
0.000124865
0.00270961
0.000110494
0.00270638
9.7128e-05
0.00270355
8.50316e-05
0.00270111
7.37757e-05
0.00269898
6.40778e-05
0.00269719
5.4607e-05
0.0026956
4.75411e-05
3.86971e-05
0.00314214
0.000261369
0.00313254
0.000270062
0.00312265
0.000278976
0.00311248
0.000288092
0.00310201
0.000297383
0.00309124
0.000306817
0.00308017
0.000316352
0.00306881
0.000325941
0.00305714
0.000335525
0.00304519
0.000345039
0.00303294
0.000354407
0.00302042
0.000363544
0.00300764
0.000372355
0.00299461
0.000380737
0.00298135
0.000388577
0.00296789
0.000395756
0.00295425
0.000402146
0.00294047
0.000407616
0.00292658
0.000412031
0.00291262
0.000415257
0.00289864
0.000417164
0.00288469
0.000417626
0.00287082
0.000416532
0.00285708
0.000413784
0.00284352
0.000409307
0.00283021
0.000403052
0.0028172
0.000394998
0.00280456
0.00038516
0.00279232
0.000373591
0.00278055
0.000360379
0.00276928
0.000345654
0.00275857
0.000329579
0.00274844
0.000312352
0.00273893
0.000294196
0.00273004
0.000275354
0.0027218
0.000256082
0.0027142
0.000236635
0.00270723
0.000217267
0.0027009
0.000198209
0.00269516
0.000179683
0.00269001
0.000161862
0.00268541
0.000144926
0.00268133
0.000128948
0.00267772
0.000114103
0.00267456
0.000100287
0.00267179
8.78009e-05
0.00266941
7.61583e-05
0.00266732
6.6164e-05
0.00266557
5.63532e-05
0.00266402
4.90966e-05
3.99225e-05
0.00310337
0.000270604
0.00309386
0.000279569
0.00308408
0.000288762
0.00307401
0.000298161
0.00306365
0.00030774
0.003053
0.000317465
0.00304206
0.000327293
0.00303083
0.000337174
0.0030193
0.000347048
0.0030075
0.000356848
0.00299541
0.000366495
0.00298305
0.000375901
0.00297044
0.000384969
0.00295758
0.000393591
0.00294451
0.000401652
0.00293124
0.000409027
0.0029178
0.000415586
0.00290422
0.000421193
0.00289054
0.000425709
0.0028768
0.000428997
0.00286305
0.00043092
0.00284932
0.000431353
0.00283567