/*--------------------------------*- C++ -*----------------------------------*\
  =========                 |
  \\      /  F ield         | OpenFOAM: The Open Source CFD Toolbox
   \\    /   O peration     | Website:  https://openfoam.org
    \\  /    A nd           | Version:  7
     \\/     M anipulation  |
\*---------------------------------------------------------------------------*/
FoamFile
{
    version     2.0;
    format      ascii;
    class       volScalarField;
    location    "5";
    object      p;
}
// * * * * * * * * * * * * * * * * * * * * * * * * * * * * * * * * * * * * * //

dimensions      [0 2 -2 0 0 0 0];

internalField   nonuniform List<scalar> 
2625
(
-0.00703637
-0.00643623
-0.00587793
-0.00535972
-0.00487978
-0.00443619
-0.00402702
-0.00365031
-0.00330413
-0.00298656
-0.00269572
-0.0024298
-0.00218706
-0.00196581
-0.00176445
-0.00158146
-0.00141541
-0.00126496
-0.00112882
-0.00100582
-0.000894847
-0.000794875
-0.000704945
-0.000624172
-0.000551733
-0.000486871
-0.000428886
-0.000377133
-0.000331021
-0.000290001
-0.000253583
-0.00022129
-0.000192739
-0.000167491
-0.000145291
-0.000125674
-0.000108585
-9.33923e-05
-8.04299e-05
-6.85825e-05
-5.90584e-05
-4.94901e-05
-4.31212e-05
-3.45381e-05
-3.17365e-05
-2.21088e-05
-2.46805e-05
-1.01277e-05
-2.29028e-05
4.83783e-06
-2.9987e-05
-0.00703361
-0.00643358
-0.00587539
-0.00535731
-0.0048775
-0.00443404
-0.004025
-0.00364842
-0.00330237
-0.00298492
-0.0026942
-0.00242841
-0.00218577
-0.00196463
-0.00176337
-0.00158048
-0.00141452
-0.00126415
-0.00112809
-0.00100516
-0.000894255
-0.000794343
-0.00070447
-0.000623747
-0.000551355
-0.000486535
-0.000428589
-0.00037687
-0.000330789
-0.000289796
-0.000253403
-0.000221132
-0.000192601
-0.00016737
-0.000145187
-0.000125583
-0.000108507
-9.3323e-05
-8.03734e-05
-6.85294e-05
-5.90199e-05
-4.94468e-05
-4.31002e-05
-3.4497e-05
-3.17366e-05
-2.20578e-05
-2.47136e-05
-1.00446e-05
-2.29961e-05
4.9988e-06
-3.00744e-05
-0.00702816
-0.00642833
-0.00587038
-0.00535254
-0.00487298
-0.00442977
-0.00402099
-0.00364467
-0.00329887
-0.00298168
-0.0026912
-0.00242564
-0.00218323
-0.0019623
-0.00176124
-0.00157854
-0.00141276
-0.00126255
-0.00112664
-0.00100386
-0.000893082
-0.000793291
-0.000703528
-0.000622906
-0.000550606
-0.00048587
-0.000427999
-0.000376348
-0.000330329
-0.000289391
-0.000253047
-0.00022082
-0.000192328
-0.000167132
-0.00014498
-0.000125402
-0.000108352
-9.31878e-05
-8.02586e-05
-6.84286e-05
-5.89372e-05
-4.93713e-05
-4.30435e-05
-3.44384e-05
-3.17029e-05
-2.20074e-05
-2.47037e-05
-9.99205e-06
-2.30146e-05
5.0669e-06
-3.00926e-05
-0.00702012
-0.00642061
-0.00586299
-0.00534551
-0.00486631
-0.00442349
-0.00401509
-0.00363915
-0.00329373
-0.0029769
-0.00268678
-0.00242156
-0.00217948
-0.00195886
-0.0017581
-0.00157567
-0.00141016
-0.00126019
-0.00112451
-0.00100193
-0.000891354
-0.000791741
-0.00070214
-0.000621668
-0.000549503
-0.00048489
-0.000427129
-0.000375579
-0.00032965
-0.000288794
-0.000252522
-0.00022036
-0.000191926
-0.00016678
-0.000144675
-0.000125137
-0.000108123
-9.29891e-05
-8.00888e-05
-6.82812e-05
-5.88135e-05
-4.92625e-05
-4.2956e-05
-3.43578e-05
-3.16445e-05
-2.19461e-05
-2.467e-05
-9.94282e-06
-2.30006e-05
5.10525e-06
-3.00776e-05
-0.00700959
-0.00641049
-0.00585331
-0.0053363
-0.00485759
-0.00441526
-0.00400736
-0.00363192
-0.00328699
-0.00297064
-0.00268099
-0.00241622
-0.00217457
-0.00195436
-0.00175398
-0.00157193
-0.00140675
-0.0012571
-0.00112172
-0.000999419
-0.000889091
-0.000789711
-0.000700324
-0.000620046
-0.000548058
-0.000483606
-0.000425992
-0.000374573
-0.000328762
-0.000288012
-0.000251836
-0.000219758
-0.0001914
-0.00016632
-0.000144275
-0.000124789
-0.000107823
-9.27291e-05
-7.98664e-05
-6.80884e-05
-5.86514e-05
-4.91204e-05
-4.2841e-05
-3.42529e-05
-3.15671e-05
-2.18673e-05
-2.46239e-05
-9.88118e-06
-2.29787e-05
5.15044e-06
-3.00516e-05
-0.00699666
-0.00639806
-0.00584143
-0.00532499
-0.00484688
-0.00440516
-0.00399787
-0.00362305
-0.00327872
-0.00296296
-0.00267388
-0.00240966
-0.00216854
-0.00194883
-0.00174894
-0.00156733
-0.00140257
-0.00125331
-0.0011183
-0.000996331
-0.000886314
-0.00078722
-0.000698094
-0.000618055
-0.000546285
-0.000482031
-0.000424595
-0.000373338
-0.000327672
-0.000287052
-0.000250993
-0.000219019
-0.000190754
-0.000165756
-0.000143784
-0.000124362
-0.000107454
-9.241e-05
-7.95935e-05
-6.78519e-05
-5.84524e-05
-4.89463e-05
-4.26995e-05
-3.41247e-05
-3.14715e-05
-2.17716e-05
-2.45659e-05
-9.80775e-06
-2.29491e-05
5.20197e-06
-3.00151e-05
-0.0069814
-0.0063834
-0.00582741
-0.00531166
-0.00483425
-0.00439325
-0.00398669
-0.00361258
-0.00326897
-0.0029539
-0.0026655
-0.00240194
-0.00216144
-0.00194232
-0.00174299
-0.00156191
-0.00139764
-0.00124885
-0.00111426
-0.000992693
-0.000883042
-0.000784285
-0.000695468
-0.00061571
-0.000544197
-0.000480175
-0.00042295
-0.000371883
-0.000326389
-0.000285922
-0.00025
-0.000218148
-0.000189993
-0.000165091
-0.000143207
-0.00012386
-0.00010702
-9.20342e-05
-7.92719e-05
-6.75735e-05
-5.82177e-05
-4.87416e-05
-4.25323e-05
-3.39745e-05
-3.13576e-05
-2.16606e-05
-2.4495e-05
-9.72496e-06
-2.29092e-05
5.25532e-06
-2.99653e-05
-0.00696392
-0.0063666
-0.00581135
-0.00529637
-0.00481977
-0.0043796
-0.00397387
-0.00360059
-0.00325779
-0.00294353
-0.00265591
-0.00239309
-0.0021533
-0.00193487
-0.00173617
-0.0015557
-0.001392
-0.00124374
-0.00110964
-0.000988527
-0.000879296
-0.000780923
-0.00069246
-0.000613025
-0.000541805
-0.00047805
-0.000421066
-0.000370217
-0.000324919
-0.000284627
-0.000248863
-0.000217151
-0.000189121
-0.00016433
-0.000142545
-0.000123284
-0.000106524
-9.16041e-05
-7.89036e-05
-6.72551e-05
-5.79487e-05
-4.85077e-05
-4.23403e-05
-3.38034e-05
-3.1226e-05
-2.15354e-05
-2.44112e-05
-9.63395e-06
-2.28585e-05
5.30895e-06
-2.99017e-05
-0.00694428
-0.00634773
-0.00579331
-0.00527921
-0.00480352
-0.00436427
-0.00395948
-0.00358713
-0.00324525
-0.00293189
-0.00264513
-0.00238315
-0.00214417
-0.0019265
-0.00172853
-0.00154873
-0.00138567
-0.001238
-0.00110446
-0.000983853
-0.000875093
-0.000777154
-0.000689086
-0.000610014
-0.000539123
-0.000475667
-0.000418954
-0.000368349
-0.00032327
-0.000283176
-0.000247588
-0.000216034
-0.000188144
-0.000163477
-0.000141803
-0.000122639
-0.000105967
-9.11218e-05
-7.84905e-05
-6.68981e-05
-5.76469e-05
-4.82457e-05
-4.21245e-05
-3.36123e-05
-3.10773e-05
-2.13967e-05
-2.43149e-05
-9.53541e-06
-2.27969e-05
5.36232e-06
-2.9824e-05
-0.00692256
-0.00632687
-0.00577337
-0.00526024
-0.00478556
-0.00434734
-0.00394358
-0.00357226
-0.0032314
-0.00291903
-0.00263324
-0.00237218
-0.00213409
-0.00191726
-0.00172009
-0.00154104
-0.00137868
-0.00123167
-0.00109873
-0.000978694
-0.000870454
-0.000772992
-0.000685362
-0.000606689
-0.000536163
-0.000473036
-0.000416622
-0.000366287
-0.000321451
-0.000281574
-0.000246181
-0.0002148
-0.000187066
-0.000162535
-0.000140985
-0.000121927
-0.000105352
-9.05898e-05
-7.80346e-05
-6.65044e-05
-5.73136e-05
-4.7957e-05
-4.18858e-05
-3.34023e-05
-3.09121e-05
-2.12452e-05
-2.42063e-05
-9.43002e-06
-2.27244e-05
5.41486e-06
-2.97322e-05
-0.00689885
-0.0063041
-0.0057516
-0.00523954
-0.00476596
-0.00432886
-0.00392623
-0.00355604
-0.00321629
-0.002905
-0.00262026
-0.00236022
-0.00212309
-0.00190718
-0.00171088
-0.00153265
-0.00137106
-0.00122477
-0.00109249
-0.000973069
-0.000865396
-0.000768456
-0.000681303
-0.000603066
-0.000532936
-0.000470169
-0.000414081
-0.000364039
-0.000319468
-0.000279828
-0.000244648
-0.000213456
-0.000185891
-0.000161508
-0.000140092
-0.000121151
-0.000104682
-9.001e-05
-7.75377e-05
-6.60756e-05
-5.69502e-05
-4.76427e-05
-4.16253e-05
-3.31741e-05
-3.0731e-05
-2.10817e-05
-2.40857e-05
-9.31846e-06
-2.26412e-05
5.46596e-06
-2.96264e-05
-0.00687322
-0.00627948
-0.00572808
-0.00521717
-0.00474478
-0.0043089
-0.00390749
-0.00353852
-0.00319996
-0.00288985
-0.00260625
-0.0023473
-0.00211122
-0.00189631
-0.00170094
-0.0015236
-0.00136284
-0.00121731
-0.00108576
-0.000967
-0.000859939
-0.000763561
-0.000676923
-0.000599156
-0.000529454
-0.000467076
-0.000411339
-0.000361615
-0.000317329
-0.000277945
-0.000242994
-0.000212006
-0.000184623
-0.000160401
-0.00013913
-0.000120314
-0.00010396
-8.93847e-05
-7.70016e-05
-6.56131e-05
-5.6558e-05
-4.73041e-05
-4.13437e-05
-3.29288e-05
-3.05346e-05
-2.0907e-05
-2.39533e-05
-9.20138e-06
-2.25472e-05
5.51506e-06
-2.95063e-05
-0.00684574
-0.00625309
-0.00570286
-0.00519319
-0.00472208
-0.00428751
-0.00388741
-0.00351975
-0.00318248
-0.00287362
-0.00259124
-0.00233347
-0.00209851
-0.00188466
-0.0016903
-0.00151391
-0.00135404
-0.00120934
-0.00107855
-0.000960504
-0.000854099
-0.000758323
-0.000672237
-0.000594973
-0.000525729
-0.000463767
-0.000408406
-0.000359021
-0.000315041
-0.00027593
-0.000241225
-0.000210455
-0.000183268
-0.000159216
-0.000138101
-0.000119418
-0.000103187
-8.87159e-05
-7.64282e-05
-6.51187e-05
-5.61383e-05
-4.69423e-05
-4.1042e-05
-3.26671e-05
-3.03234e-05
-2.07217e-05
-2.38096e-05
-9.0794e-06
-2.24424e-05
5.56165e-06
-2.93721e-05
-0.00681647
-0.00622499
-0.00567602
-0.00516767
-0.00469793
-0.00426475
-0.00386605
-0.00349978
-0.00316389
-0.00285637
-0.00257528
-0.00231876
-0.00208499
-0.00187228
-0.001679
-0.00150361
-0.00134468
-0.00120086
-0.0010709
-0.000953603
-0.000847894
-0.000752758
-0.000667258
-0.000590529
-0.000521772
-0.000460251
-0.00040529
-0.000356266
-0.00031261
-0.000273791
-0.000239346
-0.000208807
-0.000181828
-0.000157958
-0.000137007
-0.000118467
-0.000102366
-8.80058e-05
-7.58191e-05
-6.45938e-05
-5.56923e-05
-4.65583e-05
-4.07212e-05
-3.239e-05
-3.0098e-05
-2.05265e-05
-2.36546e-05
-8.9531e-06
-2.2327e-05
5.60531e-06
-2.92238e-05
-0.0067855
-0.00619526
-0.00564762
-0.00514068
-0.00467238
-0.00424068
-0.00384347
-0.00347867
-0.00314423
-0.00283813
-0.00255842
-0.00230322
-0.00207071
-0.0018592
-0.00166705
-0.00149273
-0.0013348
-0.00119191
-0.00106281
-0.000946313
-0.000841341
-0.000746881
-0.000662
-0.000585837
-0.000517593
-0.00045654
-0.000402001
-0.000353357
-0.000310044
-0.000271532
-0.000237362
-0.000207068
-0.000180308
-0.00015663
-0.000135853
-0.000117463
-0.000101499
-8.72562e-05
-7.51761e-05
-6.40399e-05
-5.52214e-05
-4.61535e-05
-4.03819e-05
-3.20983e-05
-2.98589e-05
-2.03221e-05
-2.34889e-05
-8.82301e-06
-2.22011e-05
5.64564e-06
-2.90617e-05
-0.00675288
-0.00616395
-0.00561772
-0.00511226
-0.0046455
-0.00421535
-0.00381971
-0.00345647
-0.00312356
-0.00281895
-0.00254069
-0.00228687
-0.0020557
-0.00184545
-0.0016545
-0.0014813
-0.00132442
-0.00118251
-0.00105431
-0.000938655
-0.000834456
-0.000740708
-0.000656477
-0.000580908
-0.000513205
-0.000452641
-0.000398546
-0.000350302
-0.000307349
-0.000269159
-0.000235279
-0.000205241
-0.000178711
-0.000155235
-0.000134641
-0.000116409
-0.00010059
-8.64692e-05
-7.45008e-05
-6.34584e-05
-5.47266e-05
-4.57287e-05
-4.00252e-05
-3.17928e-05
-2.96069e-05
-2.01091e-05
-2.33126e-05
-8.68965e-06
-2.20648e-05
5.68229e-06
-2.88857e-05
-0.00671869
-0.00613114
-0.00558639
-0.00508249
-0.00461733
-0.00418882
-0.00379482
-0.00343321
-0.00310191
-0.00279887
-0.00252213
-0.00226977
-0.00203999
-0.00183107
-0.00164136
-0.00146933
-0.00131355
-0.00117267
-0.00104542
-0.000930645
-0.000827257
-0.000734252
-0.000650702
-0.000575753
-0.000508616
-0.000448565
-0.000394934
-0.000347108
-0.000304531
-0.000266679
-0.000233101
-0.000203332
-0.000177043
-0.000153776
-0.000133374
-0.000115306
-9.96386e-05
-8.56466e-05
-7.37949e-05
-6.28509e-05
-5.42092e-05
-4.52852e-05
-3.96519e-05
-3.14743e-05
-2.93423e-05
-1.98881e-05
-2.31261e-05
-8.55349e-06
-2.19183e-05
5.71497e-06
-2.86962e-05
-0.00668297
-0.00609688
-0.00555368
-0.00505141
-0.00458794
-0.00416114
-0.00376886
-0.00340896
-0.00307934
-0.00277794
-0.00250277
-0.00225194
-0.00202362
-0.00181607
-0.00162767
-0.00145687
-0.00130224
-0.00116242
-0.00103616
-0.000922302
-0.000819757
-0.000727527
-0.000644687
-0.000570386
-0.000503837
-0.000444321
-0.000391172
-0.000343782
-0.000301598
-0.000264097
-0.000230833
-0.000201344
-0.000175306
-0.000152258
-0.000132055
-0.000114159
-9.86485e-05
-8.47903e-05
-7.30599e-05
-6.22186e-05
-5.36704e-05
-4.48238e-05
-3.92626e-05
-3.11435e-05
-2.90657e-05
-1.96597e-05
-2.29297e-05
-8.41497e-06
-2.17617e-05
5.74341e-06
-2.84933e-05
-0.0066458
-0.00606122
-0.00551965
-0.00501909
-0.00455737
-0.00413236
-0.00374187
-0.00338375
-0.00305588
-0.00275618
-0.00248267
-0.00223342
-0.00200661
-0.0018005
-0.00161345
-0.00144393
-0.00129048
-0.00115178
-0.00102655
-0.000913641
-0.000811973
-0.000720548
-0.000638445
-0.000564816
-0.000498878
-0.000439916
-0.00038727
-0.000340332
-0.000298554
-0.000261417
-0.000228481
-0.000199281
-0.000173504
-0.000150683
-0.000130687
-0.000112968
-9.76216e-05
-8.39022e-05
-7.22975e-05
-6.1563e-05
-5.31113e-05
-4.43456e-05
-3.88584e-05
-3.08012e-05
-2.87777e-05
-1.94245e-05
-2.27238e-05
-8.27452e-06
-2.15953e-05
5.76737e-06
-2.82774e-05
-0.00660724
-0.00602424
-0.00548436
-0.00498557
-0.00452568
-0.00410253
-0.0037139
-0.00335763
-0.00303157
-0.00273365
-0.00246185
-0.00221424
-0.001989
-0.00178438
-0.00159874
-0.00143053
-0.00127832
-0.00114076
-0.0010166
-0.000904681
-0.00080392
-0.000713328
-0.000631987
-0.000559054
-0.000493749
-0.000435361
-0.000383233
-0.000336763
-0.000295406
-0.000258647
-0.000226048
-0.000197149
-0.000171641
-0.000149054
-0.000129272
-0.000111736
-9.65597e-05
-8.29839e-05
-7.15091e-05
-6.08852e-05
-5.2533e-05
-4.38516e-05
-3.84399e-05
-3.04481e-05
-2.84788e-05
-1.91829e-05
-2.25087e-05
-8.13252e-06
-2.14192e-05
5.78666e-06
-2.80486e-05
-0.00656734
-0.00598598
-0.00544786
-0.00495091
-0.00449292
-0.00407169
-0.003685
-0.00333064
-0.00300646
-0.00271037
-0.00244034
-0.00219444
-0.00197082
-0.00176774
-0.00158355
-0.0014167
-0.00126577
-0.0011294
-0.00100634
-0.000895435
-0.000795612
-0.00070588
-0.000625326
-0.000553111
-0.000488459
-0.000430663
-0.00037907
-0.000333083
-0.000292161
-0.00025579
-0.00022354
-0.00019495
-0.000169719
-0.000147374
-0.000127813
-0.000110467
-9.5465e-05
-8.20372e-05
-7.06962e-05
-6.01867e-05
-5.19365e-05
-4.33427e-05
-3.80079e-05
-3.00848e-05
-2.81695e-05
-1.89355e-05
-2.22847e-05
-7.98934e-06
-2.12337e-05
5.80111e-06
-2.78072e-05
-0.00652615
-0.00594651
-0.0054102
-0.00491517
-0.00445914
-0.0040399
-0.0036552
-0.00330283
-0.00298059
-0.00268639
-0.00241819
-0.00217404
-0.0019521
-0.0017506
-0.00156791
-0.00140247
-0.00125285
-0.0011177
-0.000995778
-0.000885922
-0.000787063
-0.000698217
-0.000618473
-0.000546997
-0.000483016
-0.00042583
-0.000374788
-0.000329298
-0.000288822
-0.000252851
-0.000220961
-0.000192688
-0.000167744
-0.000145646
-0.000126312
-0.000109161
-9.43393e-05
-8.10638e-05
-6.98602e-05
-5.94686e-05
-5.13229e-05
-4.28198e-05
-3.75631e-05
-2.97122e-05
-2.78504e-05
-1.86828e-05
-2.20522e-05
-7.84532e-06
-2.1039e-05
5.81058e-06
-2.75536e-05
-0.00648374
-0.00590586
-0.00537144
-0.00487838
-0.00442438
-0.0040072
-0.00362456
-0.00327423
-0.00295399
-0.00266174
-0.00239543
-0.00215308
-0.00193286
-0.001733
-0.00155184
-0.00138785
-0.00123958
-0.00110569
-0.000984934
-0.000876154
-0.000778287
-0.000690351
-0.000611439
-0.000540721
-0.000477431
-0.00042087
-0.000370394
-0.000325413
-0.000285396
-0.000249836
-0.000218314
-0.000190368
-0.000165717
-0.000143873
-0.000124773
-0.000107821
-9.31845e-05
-8.00652e-05
-6.90025e-05
-5.87322e-05
-5.06932e-05
-4.22838e-05
-3.71063e-05
-2.93307e-05
-2.75218e-05
-1.84253e-05
-2.18114e-05
-7.70078e-06
-2.08354e-05
5.81496e-06
-2.72881e-05
-0.00644015
-0.0058641
-0.00533163
-0.0048406
-0.00438869
-0.00397364
-0.00359312
-0.00324488
-0.00292671
-0.00263646
-0.00237208
-0.00213159
-0.00191314
-0.00171495
-0.00153538
-0.00137287
-0.00122599
-0.00109339
-0.000973824
-0.000866148
-0.000769297
-0.000682294
-0.000604235
-0.000534295
-0.000471711
-0.000415791
-0.000365894
-0.000321436
-0.000281889
-0.00024675
-0.000215604
-0.000187992
-0.000163642
-0.000142058
-0.000123197
-0.000106449
-9.20024e-05
-7.90431e-05
-6.81246e-05
-5.79786e-05
-5.00484e-05
-4.17356e-05
-3.66382e-05
-2.89411e-05
-2.71844e-05
-1.81633e-05
-2.15627e-05
-7.55601e-06
-2.0623e-05
5.81416e-06
-2.7011e-05
-0.00639544
-0.00582127
-0.00529081
-0.00480188
-0.00435212
-0.00393924
-0.0035609
-0.00321482
-0.00289877
-0.00261058
-0.00234818
-0.0021096
-0.00189296
-0.00169649
-0.00151854
-0.00135755
-0.00121208
-0.0010808
-0.000962463
-0.000855918
-0.000760107
-0.000674057
-0.00059687
-0.000527725
-0.000465865
-0.0004106
-0.000361296
-0.000317371
-0.000278305
-0.000243595
-0.000212836
-0.000185565
-0.000161522
-0.000140204
-0.000121586
-0.000105047
-9.07948e-05
-7.7999e-05
-6.72276e-05
-5.72089e-05
-4.93894e-05
-4.11759e-05
-3.61594e-05
-2.85439e-05
-2.68386e-05
-1.78974e-05
-2.13064e-05
-7.41128e-06
-2.04022e-05
5.80811e-06
-2.67226e-05
-0.00634965
-0.00577743
-0.00524903
-0.00476226
-0.00431471
-0.00390407
-0.00352797
-0.0031841
-0.00287021
-0.00258413
-0.00232376
-0.00208713
-0.00187234
-0.00167763
-0.00150134
-0.0013419
-0.00119789
-0.00106796
-0.000950868
-0.000845476
-0.000750728
-0.000665652
-0.000589356
-0.000521023
-0.0004599
-0.000405305
-0.000356605
-0.000313225
-0.000274649
-0.000240378
-0.000210012
-0.000183089
-0.000159361
-0.000138312
-0.000119943
-0.000103618
-8.95634e-05
-7.69344e-05
-6.63128e-05
-5.64242e-05
-4.87172e-05
-4.06057e-05
-3.56706e-05
-2.81397e-05
-2.64849e-05
-1.76279e-05
-2.10429e-05
-7.26684e-06
-2.01732e-05
5.79676e-06
-2.64234e-05
-0.00630284
-0.00573262
-0.00520634
-0.00472178
-0.0042765
-0.00386815
-0.00349434
-0.00315274
-0.00284107
-0.00255714
-0.00229886
-0.00206422
-0.00185132
-0.00165841
-0.0014838
-0.00132596
-0.00118342
-0.00105487
-0.000939053
-0.000834838
-0.000741172
-0.00065709
-0.000581702
-0.000514196
-0.000453825
-0.000399912
-0.000351828
-0.000309003
-0.000270926
-0.000237102
-0.000207137
-0.000180569
-0.00015716
-0.000136386
-0.000118271
-0.000102162
-8.83099e-05
-7.58506e-05
-6.53816e-05
-5.56257e-05
-4.80327e-05
-4.00255e-05
-3.51726e-05
-2.7729e-05
-2.61236e-05
-1.73552e-05
-2.07725e-05
-7.12293e-06
-1.99363e-05
5.78009e-06
-2.61136e-05
-0.00625505
-0.00568688
-0.00516278
-0.00468049
-0.00423753
-0.00383154
-0.00346006
-0.00312078
-0.00281138
-0.00252965
-0.00227349
-0.00204088
-0.00182992
-0.00163884
-0.00146596
-0.00130973
-0.0011687
-0.00104155
-0.000927032
-0.000824016
-0.000731452
-0.000648381
-0.000573917
-0.000507254
-0.000447648
-0.000394428
-0.000346971
-0.000304711
-0.000267141
-0.000233772
-0.000204214
-0.000178007
-0.000154923
-0.000134428
-0.00011657
-0.000100682
-8.70359e-05
-7.47491e-05
-6.4435e-05
-5.48143e-05
-4.73367e-05
-3.94363e-05
-3.46658e-05
-2.73125e-05
-2.57554e-05
-1.70797e-05
-2.04954e-05
-6.97976e-06
-1.96917e-05
5.75808e-06
-2.57936e-05
-0.00620633
-0.00564027
-0.00511839
-0.00463843
-0.00419785
-0.00379425
-0.00342518
-0.00308825
-0.00278117
-0.00250169
-0.00224769
-0.00201715
-0.00180816
-0.00161894
-0.00144782
-0.00129323
-0.00115374
-0.00102801
-0.000914819
-0.000813022
-0.000721579
-0.000639536
-0.000566011
-0.000500203
-0.000441375
-0.000388859
-0.000342039
-0.000300352
-0.000263299
-0.000230391
-0.000201247
-0.000175405
-0.000152652
-0.00013244
-0.000114843
-9.91794e-05
-8.57428e-05
-7.36312e-05
-6.34742e-05
-5.3991e-05
-4.66301e-05
-3.88387e-05
-3.41509e-05
-2.68906e-05
-2.53805e-05
-1.68017e-05
-2.02121e-05
-6.83751e-06
-1.94397e-05
5.73074e-06
-2.54639e-05
-0.00615672
-0.00559282
-0.00507322
-0.00459564
-0.00415749
-0.00375634
-0.00338971
-0.0030552
-0.00275047
-0.00247328
-0.00222148
-0.00199305
-0.00178607
-0.00159875
-0.0014294
-0.00127649
-0.00113856
-0.00101428
-0.000902428
-0.000801868
-0.000711564
-0.000630564
-0.000557993
-0.000493053
-0.000435014
-0.000383213
-0.000337038
-0.000295933
-0.000259403
-0.000226963
-0.000198239
-0.000172769
-0.00015035
-0.000130425
-0.000113092
-9.76563e-05
-8.44323e-05
-7.24982e-05
-6.25004e-05
-5.31567e-05
-4.59137e-05
-3.82334e-05
-3.36285e-05
-2.64638e-05
-2.49994e-05
-1.65216e-05
-1.99228e-05
-6.69639e-06
-1.91807e-05
5.69809e-06
-2.51248e-05
-0.00610627
-0.00554457
-0.00502731
-0.00455216
-0.00411648
-0.00371784
-0.0033537
-0.00302164
-0.00271931
-0.00244445
-0.0021949
-0.00196861
-0.00176367
-0.00157827
-0.00141074
-0.00125952
-0.00112317
-0.00100036
-0.000889872
-0.000790568
-0.000701418
-0.000621475
-0.00054987
-0.000485811
-0.000428571
-0.000377494
-0.000331974
-0.000291459
-0.000255458
-0.000223492
-0.000195194
-0.000170099
-0.00014802
-0.000128385
-0.000111319
-9.61143e-05
-8.31057e-05
-7.13515e-05
-6.15145e-05
-5.23125e-05
-4.51883e-05
-3.76211e-05
-3.30991e-05
-2.60326e-05
-2.46125e-05
-1.62396e-05
-1.96278e-05
-6.55654e-06
-1.89148e-05
5.66015e-06
-2.47766e-05
-0.00605501
-0.00549557
-0.0049807
-0.00450802
-0.00407488
-0.00367878
-0.00331717
-0.00298762
-0.00268773
-0.00241524
-0.00216796
-0.00194385
-0.00174097
-0.00155753
-0.00139183
-0.00124234
-0.00110759
-0.000986277
-0.000877163
-0.000779131
-0.00069115
-0.000612278
-0.000541652
-0.000478484
-0.000422053
-0.000371709
-0.000326852
-0.000286933
-0.000251469
-0.000219982
-0.000192114
-0.000167399
-0.000145663
-0.000126322
-0.000109525
-9.4555e-05
-8.17644e-05
-7.0192e-05
-6.05177e-05
-5.14591e-05
-4.44546e-05
-3.70025e-05
-3.25634e-05
-2.55975e-05
-2.42203e-05
-1.59562e-05
-1.93275e-05
-6.41812e-06
-1.86424e-05
5.61698e-06
-2.44197e-05
-0.00600299
-0.00544586
-0.00493342
-0.00446327
-0.0040327
-0.00363919
-0.00328017
-0.00295315
-0.00265575
-0.00238565
-0.00214069
-0.00191878
-0.001718
-0.00153654
-0.00137271
-0.00122496
-0.00109184
-0.000972032
-0.000864314
-0.000767569
-0.00068077
-0.000602983
-0.000533346
-0.000471079
-0.000415466
-0.000365864
-0.000321676
-0.00028236
-0.000247438
-0.000216436
-0.000189004
-0.000164672
-0.000143283
-0.000124238
-0.000107712
-9.298e-05
-8.04097e-05
-6.90212e-05
-5.95109e-05
-5.05974e-05
-4.37134e-05
-3.63781e-05
-3.20219e-05
-2.51588e-05
-2.38231e-05
-1.56715e-05
-1.90221e-05
-6.28126e-06
-1.83637e-05
5.56863e-06
-2.40546e-05
-0.00595025
-0.00539548
-0.00488552
-0.00441794
-0.00398999
-0.00359912
-0.00324271
-0.00291828
-0.00262339
-0.00235574
-0.00211311
-0.00189344
-0.00169479
-0.00151533
-0.00135339
-0.0012074
-0.00107593
-0.000957643
-0.000851337
-0.000755892
-0.00067029
-0.000593597
-0.000524961
-0.000463604
-0.000408817
-0.000359964
-0.000316452
-0.000277744
-0.00024337
-0.000212858
-0.000185864
-0.00016192
-0.000140882
-0.000122136
-0.000105882
-9.13907e-05
-7.9043e-05
-6.784e-05
-5.84951e-05
-4.97283e-05
-4.29653e-05
-3.57485e-05
-3.14749e-05
-2.4717e-05
-2.34213e-05
-1.53858e-05
-1.87119e-05
-6.14608e-06
-1.80791e-05
5.51516e-06
-2.36816e-05
-0.00589683
-0.00534445
-0.00483702
-0.00437207
-0.00394678
-0.00355859
-0.00320484
-0.00288303
-0.00259069
-0.00232551
-0.00208525
-0.00186785
-0.00167135
-0.00149392
-0.00133388
-0.00118968
-0.00105986
-0.000943123
-0.000838242
-0.000744112
-0.000659716
-0.000584129
-0.000516503
-0.000456064
-0.000402112
-0.000354014
-0.000311184
-0.000273091
-0.000239269
-0.00020925
-0.000182699
-0.000159146
-0.000138461
-0.000120016
-0.000104036
-8.97887e-05
-7.76655e-05
-6.66496e-05
-5.74712e-05
-4.88526e-05
-4.22112e-05
-3.51144e-05
-3.09232e-05
-2.42725e-05
-2.30152e-05
-1.50994e-05
-1.83973e-05
-6.0127e-06
-1.77887e-05
5.45666e-06
-2.3301e-05
-0.00584275
-0.00529283
-0.00478797
-0.00432568
-0.0039031
-0.00351763
-0.00316658
-0.00284742
-0.00255767
-0.00229498
-0.00205713
-0.00184202
-0.00164769
-0.00147232
-0.00131421
-0.0011718
-0.00104367
-0.000928483
-0.000825042
-0.000732237
-0.000649059
-0.000574587
-0.000507979
-0.000448467
-0.000395356
-0.00034802
-0.000305877
-0.000268403
-0.000235137
-0.000205616
-0.000179512
-0.000156352
-0.000136023
-0.000117881
-0.000102175
-8.81755e-05
-7.62783e-05
-6.54511e-05
-5.64401e-05
-4.7971e-05
-4.14515e-05
-3.44762e-05
-3.03671e-05
-2.38256e-05
-2.26053e-05
-1.48125e-05
-1.80785e-05
-5.8812e-06
-1.7493e-05
5.39319e-06
-2.29133e-05
-0.00578807
-0.00524064
-0.0047384
-0.00427882
-0.00385898
-0.00347627
-0.00312796
-0.00281148
-0.00252435
-0.0022642
-0.00202878
-0.00181598
-0.00162385
-0.00145054
-0.00129438
-0.00115379
-0.00102735
-0.000913736
-0.000811745
-0.000720278
-0.000638328
-0.00056498
-0.000499397
-0.000440818
-0.000388554
-0.000341985
-0.000300535
-0.000263684
-0.000230979
-0.000201959
-0.000176304
-0.000153541
-0.000133569
-0.000115734
-0.000100301
-8.65524e-05
-7.48825e-05
-6.42454e-05
-5.54026e-05
-4.70842e-05
-4.0687e-05
-3.38346e-05
-2.9807e-05
-2.33768e-05
-2.21918e-05
-1.45253e-05
-1.77558e-05
-5.75167e-06
-1.71921e-05
5.32487e-06
-2.25189e-05
-0.00573281
-0.00518792
-0.00468834
-0.00423151
-0.00381446
-0.00343454
-0.003089
-0.00277525
-0.00249076
-0.00223317
-0.0020002
-0.00178975
-0.00159983
-0.00142862
-0.00127441
-0.00113566
-0.00101092
-0.000898892
-0.000798364
-0.000708243
-0.000627529
-0.000555313
-0.000490764
-0.000433124
-0.000381713
-0.000335916
-0.000295163
-0.000258939
-0.000226797
-0.000198281
-0.000173079
-0.000150714
-0.000131103
-0.000113575
-9.84149e-05
-8.49208e-05
-7.34794e-05
-6.30335e-05
-5.43596e-05
-4.61929e-05
-3.99182e-05
-3.31899e-05
-2.92436e-05
-2.29263e-05
-2.17752e-05
-1.42381e-05
-1.74294e-05
-5.62419e-06
-1.68863e-05
5.25178e-06
-2.2118e-05
-0.005677
-0.00513469
-0.00463782
-0.00418378
-0.00376956
-0.00339247
-0.00304973
-0.00273873
-0.00245693
-0.00220192
-0.00197143
-0.00176333
-0.00157565
-0.00140655
-0.00125432
-0.00111742
-0.0009944
-0.000883962
-0.000784906
-0.000696141
-0.000616672
-0.000545595
-0.000482085
-0.00042539
-0.000374837
-0.000329816
-0.000289763
-0.00025417
-0.000222595
-0.000194586
-0.000169838
-0.000147874
-0.000128624
-0.000111406
-9.65183e-05
-8.32821e-05
-7.20699e-05
-6.18164e-05
-5.33119e-05
-4.52979e-05
-3.91457e-05
-3.25427e-05
-2.86771e-05
-2.24746e-05
-2.13556e-05
-1.39511e-05
-1.70998e-05
-5.49881e-06
-1.6576e-05
5.17403e-06
-2.17111e-05
-0.00562069
-0.00508101
-0.00458688
-0.00413567
-0.00372431
-0.00335009
-0.00301019
-0.00270197
-0.00242287
-0.00217047
-0.00194248
-0.00173676
-0.00155134
-0.00138436
-0.00123412
-0.00109908
-0.000977792
-0.000868958
-0.000771383
-0.000683981
-0.000605764
-0.000535831
-0.000473367
-0.000417622
-0.000367931
-0.00032369
-0.000284341
-0.000249382
-0.000218376
-0.000190876
-0.000166584
-0.000145023
-0.000126137
-0.000109229
-9.46121e-05
-8.16373e-05
-7.0655e-05
-6.0595e-05
-5.22602e-05
-4.43997e-05
-3.83702e-05
-3.18934e-05
-2.8108e-05
-2.20218e-05
-2.09335e-05
-1.36643e-05
-1.6767e-05
-5.37559e-06
-1.62614e-05
5.09172e-06
-2.12985e-05
-0.0055639
-0.00502688
-0.00453554
-0.0040872
-0.00367874
-0.00330742
-0.00297038
-0.00266497
-0.0023886
-0.00213883
-0.00191337
-0.00171005
-0.0015269
-0.00136206
-0.00121383
-0.00108066
-0.000961109
-0.000853888
-0.000757802
-0.000671771
-0.000594812
-0.00052603
-0.000464616
-0.000409824
-0.000360999
-0.000317542
-0.0002789
-0.000244577
-0.000214143
-0.000187153
-0.00016332
-0.000142164
-0.000123641
-0.000107046
-9.26973e-05
-7.99879e-05
-6.92357e-05
-5.93702e-05
-5.12052e-05
-4.3499e-05
-3.7592e-05
-3.12425e-05
-2.75366e-05
-2.15684e-05
-2.05092e-05
-1.33781e-05
-1.64314e-05
-5.25457e-06
-1.59427e-05
5.00498e-06
-2.08805e-05
-0.00550665
-0.00497236
-0.00448384
-0.0040384
-0.00363287
-0.00326448
-0.00293034
-0.00262777
-0.00235416
-0.00210704
-0.00188411
-0.00168322
-0.00150235
-0.00133966
-0.00119345
-0.00106216
-0.000944363
-0.000838763
-0.000744174
-0.00065952
-0.000583823
-0.000516197
-0.000455837
-0.000402003
-0.000354047
-0.000311376
-0.000273444
-0.000239759
-0.000209898
-0.00018342
-0.000160047
-0.000139297
-0.000121138
-0.000104859
-9.0775e-05
-7.83349e-05
-6.7813e-05
-5.81427e-05
-5.01476e-05
-4.25964e-05
-3.68118e-05
-3.05905e-05
-2.69635e-05
-2.11145e-05
-2.00829e-05
-1.30925e-05
-1.60932e-05
-5.13578e-06
-1.56202e-05
4.91392e-06
-2.04576e-05
-0.00544899
-0.00491746
-0.0044318
-0.0039893
-0.00358674
-0.00322131
-0.0028901
-0.00259039
-0.00231955
-0.00207511
-0.00185474
-0.00165627
-0.00147771
-0.00131718
-0.001173
-0.0010436
-0.000927564
-0.000823591
-0.000730505
-0.000647233
-0.000572805
-0.000506338
-0.000447036
-0.000394162
-0.000347078
-0.000305196
-0.000267975
-0.00023493
-0.000205644
-0.00017968
-0.000156768
-0.000136424
-0.000118631
-0.000102668
-8.88461e-05
-7.66794e-05
-6.63877e-05
-5.69135e-05
-4.90881e-05
-4.16924e-05
-3.60301e-05
-2.99376e-05
-2.63889e-05
-2.06606e-05
-1.96549e-05
-1.28077e-05
-1.57527e-05
-5.01926e-06
-1.52942e-05
4.81867e-06
-2.00301e-05
-0.00539093
-0.00486221
-0.00437946
-0.00393993
-0.00354036
-0.00317792
-0.00284966
-0.00255284
-0.0022848
-0.00204305
-0.00182525
-0.00162924
-0.00145298
-0.00129464
-0.00115249
-0.00102499
-0.000910721
-0.000808383
-0.000716805
-0.00063492
-0.000561764
-0.00049646
-0.000438219
-0.000386307
-0.000340098
-0.000299005
-0.000262497
-0.000230093
-0.000201383
-0.000175935
-0.000153484
-0.000133548
-0.000116121
-0.000100475
-8.69115e-05
-7.50226e-05
-6.49607e-05
-5.56832e-05
-4.80273e-05
-4.07876e-05
-3.52472e-05
-2.92843e-05
-2.58132e-05
-2.02067e-05
-1.92256e-05
-1.25239e-05
-1.54101e-05
-4.90502e-06
-1.4965e-05
4.71935e-06
-1.95982e-05
-0.00533251
-0.00480666
-0.00432683
-0.00389031
-0.00349376
-0.00313434
-0.00280906
-0.00251514
-0.00224992
-0.00201088
-0.00179568
-0.00160213
-0.0014282
-0.00127204
-0.00113194
-0.00100635
-0.000893845
-0.000793146
-0.00070308
-0.000622586
-0.000550705
-0.000486567
-0.000429389
-0.000378441
-0.000333109
-0.000292808
-0.000257013
-0.000225252
-0.000197119
-0.000172186
-0.000150197
-0.000130671
-0.000113609
-9.8281e-05
-8.4972e-05
-7.33655e-05
-6.35328e-05
-5.44526e-05
-4.69658e-05
-3.98825e-05
-3.44637e-05
-2.8631e-05
-2.52367e-05
-1.97532e-05
-1.87952e-05
-1.22412e-05
-1.50657e-05
-4.79307e-06
-1.46327e-05
4.61608e-06
-1.91624e-05
-0.00527374
-0.00475081
-0.00427394
-0.00384046
-0.00344697
-0.0030906
-0.00276831
-0.00247733
-0.00221494
-0.00197863
-0.00176603
-0.00157495
-0.00140336
-0.00124939
-0.00111135
-0.000987668
-0.000876944
-0.000777889
-0.000689339
-0.000610239
-0.000539636
-0.000476666
-0.000420553
-0.00037057
-0.000326116
-0.000286606
-0.000251527
-0.000220409
-0.000192853
-0.000168436
-0.00014691
-0.000127793
-0.000111096
-9.60881e-05
-8.30285e-05
-7.17089e-05
-6.21049e-05
-5.32224e-05
-4.59043e-05
-3.89776e-05
-3.368e-05
-2.7978e-05
-2.46598e-05
-1.93003e-05
-1.83639e-05
-1.19597e-05
-1.47196e-05