/*--------------------------------*- C++ -*----------------------------------*\
  =========                 |
  \\      /  F ield         | OpenFOAM: The Open Source CFD Toolbox
   \\    /   O peration     | Website:  https://openfoam.org
    \\  /    A nd           | Version:  7
     \\/     M anipulation  |
\*---------------------------------------------------------------------------*/
FoamFile
{
    version     2.0;
    format      ascii;
    class       volScalarField;
    location    "20";
    object      p;
}
// * * * * * * * * * * * * * * * * * * * * * * * * * * * * * * * * * * * * * //

dimensions      [0 2 -2 0 0 0 0];

internalField   nonuniform List<scalar> 
2625
(
0.0729011
0.0755091
0.0804659
0.076848
0.0835452
0.0880474
0.0782908
0.0853834
0.0915955
0.0956408
0.103586
0.0794233
0.0873818
0.0939352
0.0996542
0.103241
0.110868
0.0891339
0.0964901
0.102497
0.107715
0.110843
0.118135
0.0906344
0.0988636
0.105609
0.111062
0.115773
0.118442
0.12538
0.0917776
0.101054
0.108605
0.114731
0.119625
0.123822
0.126033
0.132597
0.102964
0.111487
0.11835
0.123849
0.128179
0.131854
0.133611
0.13978
0.104508
0.114167
0.121925
0.12809
0.132956
0.136717
0.139865
0.141171
0.14692
0.116564
0.125376
0.132358
0.137819
0.142044
0.145232
0.147847
0.148709
0.154011
0.118609
0.128629
0.136581
0.142779
0.147527
0.151107
0.153718
0.155794
0.156219
0.161043
0.13162
0.140692
0.147774
0.153178
0.157207
0.160137
0.162168
0.1637
0.163698
0.168005
0.134302
0.144633
0.152742
0.158943
0.163546
0.166851
0.169126
0.170576
0.171557
0.171142
0.174885
0.148356
0.157633
0.164768
0.170079
0.173874
0.176451
0.178068
0.178933
0.179358
0.178547
0.181667
0.162401
0.17061
0.176759
0.181173
0.184154
0.185998
0.186955
0.187234
0.187097
0.185911
0.188332
0.167144
0.176423
0.183549
0.188704
0.192213
0.194377
0.195485
0.195779
0.195472
0.194767
0.193231
0.194853
0.182311
0.190406
0.196439
0.200592
0.203191
0.204534
0.204903
0.204534
0.203639
0.202362
0.200507
0.201197
0.197439
0.204336
0.209267
0.212411
0.214097
0.214616
0.214246
0.213213
0.211729
0.209876
0.207745
0.207332
0.20466
0.212512
0.2182
0.22202
0.22415
0.22492
0.224615
0.223504
0.221809
0.219734
0.217307
0.214975
0.213232
0.220958
0.227514
0.231982
0.234686
0.235799
0.235651
0.234521
0.232672
0.230314
0.227646
0.224655
0.222192
0.218755
0.237181
0.242427
0.245668
0.247251
0.247346
0.246281
0.244328
0.241741
0.238723
0.235459
0.231912
0.229197
0.223305
0.248144
0.253318
0.257238
0.259243
0.259703
0.258779
0.256799
0.254025
0.250704
0.247029
0.243174
0.239079
0.235821
0.226005
0.265594
0.269331
0.271925
0.272694
0.272031
0.27009
0.267196
0.263605
0.259553
0.255226
0.250788
0.246166
0.242647
0.231745
0.282913
0.285208
0.286473
0.286007
0.284222
0.281267
0.277464
0.273059
0.268281
0.263308
0.258295
0.253161
0.24938
0.238353
0.300087
0.300934
0.300868
0.299167
0.296263
0.292299
0.287592
0.282379
0.276881
0.271268
0.265688
0.260051
0.2559
0.244829
0.317094
0.31649
0.315094
0.312161
0.308143
0.303175
0.297571
0.291557
0.285346
0.279098
0.272957
0.266827
0.262248
0.251081
0.334076
0.333912
0.331857
0.329133
0.324974
0.319849
0.313885
0.307392
0.300585
0.293667
0.286792
0.280095
0.27348
0.268447
0.257183
0.352154
0.350521
0.347018
0.342971
0.337593
0.33137
0.324419
0.317045
0.309453
0.301838
0.294342
0.287095
0.28
0.274499
0.263151
0.37
0.366899
0.361953
0.356592
0.350004
0.342694
0.334766
0.326522
0.318155
0.309851
0.301742
0.293951
0.286382
0.280401
0.268973
0.387589
0.383026
0.376647
0.369981
0.362195
0.353808
0.344917
0.335814
0.326683
0.317699
0.308986
0.300657
0.292619
0.286153
0.274642
0.404898
0.398881
0.391079
0.383122
0.374152
0.364703
0.354861
0.344911
0.335028
0.325375
0.316068
0.307208
0.298706
0.291755
0.280157
0.433208
0.421904
0.414444
0.405235
0.396
0.385862
0.375367
0.364588
0.353807
0.343184
0.332873
0.322981
0.313598
0.304639
0.297206
0.285516
0.451491
0.438585
0.429696
0.419095
0.408602
0.397312
0.385788
0.37409
0.362491
0.351142
0.340187
0.32972
0.319824
0.310413
0.302505
0.290718
0.469407
0.454917
0.444617
0.432645
0.420911
0.408491
0.395956
0.383357
0.370957
0.358897
0.347309
0.33628
0.325879
0.316026
0.307649
0.295762
0.486931
0.470879
0.459188
0.445867
0.432916
0.419386
0.405861
0.392379
0.379196
0.36644
0.354234
0.342655
0.33176
0.321473
0.312637
0.300646
0.504037
0.486449
0.473391
0.458745
0.444601
0.429985
0.415492
0.401148
0.3872
0.373765
0.360956
0.348839
0.337463
0.326751
0.317467
0.305369
0.520703
0.501607
0.487207
0.471265
0.455953
0.440277
0.42484
0.409654
0.394962
0.380866
0.36747
0.354829
0.342983
0.331856
0.322137
0.309929
0.536903
0.516331
0.500618
0.48341
0.46696
0.450251
0.433894
0.417891
0.402474
0.387735
0.373769
0.360619
0.348316
0.336785
0.326645
0.314325
0.552615
0.530602
0.513608
0.495167
0.477609
0.459895
0.442646
0.425849
0.409729
0.394368
0.379848
0.366205
0.353459
0.341536
0.330987
0.318555
0.585271
0.567816
0.5444
0.52616
0.50652
0.487887
0.4692
0.451086
0.433521
0.416721
0.400757
0.385702
0.371582
0.358408
0.346105
0.335162
0.322617
0.601126
0.582485
0.557707
0.538258
0.517457
0.497783
0.478154
0.459205
0.440899
0.423443
0.406898
0.391326
0.376745
0.363158
0.350489
0.339167
0.32651
0.616391
0.5966
0.570505
0.549886
0.527963
0.507285
0.486749
0.466996
0.447975
0.429888
0.412784
0.396715
0.381692
0.367707
0.354685
0.343
0.330231
0.631044
0.610142
0.582775
0.561029
0.538026
0.516382
0.494975
0.474449
0.454744
0.436051
0.41841
0.401865
0.386417
0.372051
0.35869
0.346659
0.333779
0.645062
0.62309
0.594502
0.571672
0.547634
0.525065
0.502822
0.481557
0.461196
0.441925
0.423771
0.406771
0.390917
0.376187
0.362502
0.35014
0.337153
0.658424
0.635426
0.605669
0.581803
0.556774
0.533322
0.510283
0.488312
0.467328
0.447504
0.428862
0.411429
0.395188
0.380112
0.366118
0.353443
0.34035
0.671109
0.647132
0.616261
0.591407
0.565437
0.541144
0.517348
0.494709
0.473131
0.452784
0.433679
0.415834
0.399227
0.383822
0.369536
0.356564
0.343369
0.683099
0.658191
0.626263
0.600474
0.573611
0.548522
0.524011
0.500738
0.478601
0.45776
0.438217
0.419984
0.403031
0.387315
0.372752
0.359501
0.346208
0.694374
0.668587
0.635662
0.608989
0.581286
0.555448
0.530263
0.506395
0.483731
0.462426
0.442471
0.423874
0.406595
0.390588
0.375766
0.362253
0.348866
0.704918
0.678305
0.644444
0.616944
0.588453
0.561914
0.536098
0.511674
0.488517
0.466777
0.446439
0.4275
0.409918
0.393638
0.378573
0.364817
0.351341
0.714714
0.687331
0.652598
0.624327
0.595103
0.567911
0.54151
0.516568
0.492954
0.470811
0.450116
0.430861
0.412996
0.396463
0.381173
0.367191
0.353632
0.723748
0.695652
0.660113
0.631129
0.601227
0.573434
0.546492
0.521073
0.497038
0.474522
0.453498
0.433952
0.415827
0.399062
0.383564
0.369374
0.355737
0.732005
0.703255
0.666978
0.637341
0.606819
0.578475
0.551038
0.525184
0.500763
0.477908
0.456584
0.436771
0.418409
0.40143
0.385743
0.371365
0.357655
0.796979
0.739474
0.71013
0.673183
0.642955
0.611872
0.583029
0.555145
0.528896
0.504127
0.480965
0.459369
0.439315
0.420738
0.403568
0.387709
0.37316
0.359385
0.804346
0.746141
0.716267
0.678721
0.647963
0.616379
0.58709
0.558807
0.532206
0.507125
0.483689
0.461851
0.441582
0.422815
0.405473
0.389461
0.37476
0.360925
0.810818
0.751998
0.721656
0.683583
0.65236
0.620334
0.590654
0.56202
0.535109
0.509756
0.486079
0.464028
0.443571
0.424635
0.407143
0.390997
0.376163
0.362275
0.816385
0.757034
0.726289
0.687762
0.656139
0.623733
0.593717
0.56478
0.537604
0.512016
0.488132
0.465898
0.445279
0.426198
0.408577
0.392316
0.377367
0.363434
0.821038
0.761243
0.730161
0.691254
0.659295
0.626572
0.596274
0.567085
0.539687
0.513902
0.489846
0.467459
0.446704
0.427503
0.409774
0.393416
0.378373
0.364402
0.824769
0.764617
0.733264
0.694052
0.661825
0.628847
0.598323
0.568932
0.541356
0.515414
0.491219
0.46871
0.447847
0.428549
0.410733
0.394298
0.379178
0.365176
0.827572
0.767152
0.735595
0.696154
0.663724
0.630556
0.599862
0.570319
0.542609
0.516549
0.49225
0.469649
0.448704
0.429334
0.411453
0.39496
0.379783
0.365758
0.829444
0.768843
0.737151
0.697556
0.664991
0.631695
0.600888
0.571244
0.543445
0.517306
0.492938
0.470275
0.449276
0.429858
0.411933
0.395402
0.380186
0.366146
0.571707
0.543863
0.517685
0.493282
0.470589
0.449563
0.43012
0.412174
0.395623
0.380388
0.366341
0.223623
0.214049
0.207983
0.201767
0.195333
0.188837
0.182266
0.175629
0.168937
0.162197
0.155414
0.148596
0.141747
0.134874
0.12798
0.224575
0.213934
0.207889
0.201526
0.194966
0.188395
0.181773
0.175106
0.1684
0.161657
0.154883
0.148082
0.141258
0.134415
0.222622
0.211415
0.20553
0.199241
0.192745
0.186264
0.179738
0.173173
0.166572
0.159938
0.153274
0.146585
0.139874
0.2201
0.208791
0.202984
0.196793
0.19038
0.184001
0.177582
0.171127
0.164639
0.158121
0.151575
0.145005
0.217528
0.206415
0.200645
0.194546
0.188206
0.181914
0.175588
0.16923
0.162843
0.156429
0.149991
0.143529
0.214856
0.204061
0.198308
0.19231
0.186053
0.179851
0.17362
0.16736
0.161075
0.154766
0.148433
0.212109
0.201684
0.195935
0.190045
0.18388
0.177773
0.171642
0.165483
0.159303
0.1531
0.20933
0.199302
0.193552
0.187773
0.181707
0.175697
0.169668
0.163613
0.157538
0.206539
0.196917
0.191172
0.185506
0.179543
0.173632
0.167705
0.161755
0.203751
0.19453
0.188799
0.183244
0.177389
0.171578
0.165756
0.200975
0.192143
0.186435
0.18099
0.175247
0.198218
0.189759
0.184087
0.178749
0.195485
0.187381
0.181755
0.192779
0.185013
0.190103
0.239594
0.239659
0.239953
0.240346
0.240896
0.241552
0.242327
0.243198
0.24416
0.245194
0.246283
0.247405
0.248534
0.249639
0.250685
0.251633
0.25244
0.253056
0.253433
0.253514
0.253248
0.252567
0.25144
0.249759
0.247599
0.244637
0.241533
0.236547
0.23405
0.219806
0.239456
0.239513
0.23979
0.240161
0.240681
0.2413
0.242031
0.242849
0.243748
0.24471
0.245715
0.246742
0.247762
0.248745
0.249655
0.250451
0.251089
0.251521
0.251697
0.251559
0.25106
0.25013
0.248745
0.246795
0.244372
0.24113
0.237809
0.232443
0.229982
0.214463
0.239317
0.239373
0.23964
0.239997
0.240497
0.24109
0.241791
0.242573
0.243431
0.244346
0.245299
0.246267
0.247223
0.248137
0.248971
0.249686
0.250239
0.250581
0.250664
0.250431
0.249835
0.24881
0.247333
0.245291
0.242789
0.23945
0.236076
0.23051
0.228217
0.213076
0.239174
0.239228
0.239484
0.239825
0.240303
0.240869
0.241536
0.242279
0.243091
0.243953
0.244847
0.245749
0.246632
0.247464
0.24821
0.24883
0.24928
0.249514
0.249483
0.249132
0.248417
0.24727
0.245672
0.24351
0.240898
0.237438
0.233983
0.228248
0.226013
0.211196
0.239026
0.239078
0.239322
0.239646
0.2401
0.240636
0.241266
0.241966
0.242728
0.243532
0.244361
0.24519
0.245991
0.246733
0.247381
0.247894
0.24823
0.248341
0.248181
0.247695
0.24684
0.245551
0.243813
0.24151
0.238765
0.235169
0.231605
0.225733
0.223456
0.208877
0.238874
0.238923
0.239154
0.23946
0.239889
0.240395
0.240988
0.241643
0.242353
0.243099
0.243861
0.244615
0.245333
0.245984
0.246531
0.246936
0.247155
0.247142
0.246852
0.24623
0.245236
0.243805
0.241925
0.239483
0.236606
0.232881
0.229205
0.223235
0.22086
0.20656
0.238717
0.238763
0.238982
0.23927
0.239674
0.240147
0.240702
0.241312
0.24197
0.242656
0.24335
0.244028
0.244663
0.245221
0.245668
0.245963
0.246066
0.24593
0.24551
0.244754
0.243623
0.242053
0.240036
0.23746
0.234455
0.230611
0.226822
0.220789
0.218275
0.204312
0.238556
0.238599
0.238804
0.239074
0.239452
0.239893
0.240409
0.240973
0.241577
0.242202
0.242827
0.243428
0.243977
0.244442
0.244787
0.244973
0.244959
0.244699
0.244149
0.24326
0.241992
0.240286
0.238134
0.235427
0.232296
0.228342
0.224438
0.218368
0.215684
0.202097
0.238389
0.23843
0.238621
0.238872
0.239223
0.239632
0.240107
0.240624
0.241174
0.241736
0.242292
0.242814
0.243276
0.243646
0.243888
0.243963
0.243831
0.243447
0.242767
0.241744
0.240341
0.238499
0.236213
0.233379
0.230125
0.226068
0.222047
0.215963
0.213083
0.199897
0.238219
0.238256
0.238433
0.238665
0.238989
0.239364
0.239798
0.240266
0.24076
0.241259
0.241743
0.242185
0.24256
0.242833
0.242971
0.242934
0.242683
0.242174
0.241364
0.240208
0.23867
0.236694
0.234277
0.231318
0.227943
0.223791
0.219654
0.213571
0.21048
0.197712
0.238043
0.238077
0.23824
0.238452
0.238747
0.239088
0.23948
0.239899
0.240336
0.24077
0.241181
0.241542
0.241827
0.242003
0.242035
0.241886
0.241515
0.240881
0.239942
0.238653
0.236981
0.234873
0.232326
0.229247
0.225754
0.221512
0.217262
0.211192
0.207882
0.195538
0.237862
0.237893
0.238041
0.238233
0.2385
0.238805
0.239153
0.239522
0.239901
0.240269
0.240605
0.240885
0.241079
0.241156
0.241082
0.240819
0.240328
0.239568
0.2385
0.237079
0.235275
0.233037
0.230362
0.227166
0.223559
0.219234
0.214872
0.208825
0.205294
0.193374
0.237676
0.237703
0.237837
0.238007
0.238245
0.238514
0.238819
0.239136
0.239456
0.239756
0.240017
0.240212
0.240315
0.240292
0.240111
0.239734
0.239122
0.238237
0.23704
0.235488
0.233552
0.231186
0.228388
0.225078
0.221359
0.216957
0.212487
0.206468
0.20272
0.191219
0.237485
0.237509
0.237627
0.237776
0.237984
0.238216
0.238475
0.23874
0.238999
0.239231
0.239415
0.239526
0.239535
0.239412
0.239122
0.23863
0.237898
0.236887
0.235561
0.23388
0.231815
0.229323
0.226403
0.222983
0.219158
0.214683
0.21011
0.204123
0.200165
0.189072
0.237289
0.237309
0.237412
0.237539
0.237716
0.23791
0.238124
0.238335
0.238532
0.238694
0.238801
0.238825
0.23874
0.238515
0.238117
0.237509
0.236656
0.23552
0.234066
0.232256
0.230064
0.227449
0.22441
0.220884
0.216956
0.212412
0.207743
0.20179
0.197632
0.186933
0.237088
0.237104
0.23719
0.237295
0.237441
0.237596
0.237763
0.237919
0.244936
0.245043
0.245606
0.246371
0.247448
0.24876
0.250336
0.252156
0.25423
0.256553
0.259131
0.261965
0.265053
0.268412
0.272025
0.275903
0.280044
0.284449
0.289116
0.294043
0.299226
0.304662
0.310343
0.316264
0.322416
0.328789
0.335374
0.342157
0.349125
0.356247
0.244929
0.245035
0.245598
0.246363
0.247439
0.24875
0.250325
0.252145
0.254217
0.256539
0.259115
0.261947
0.26503
0.268389
0.271999
0.275874
0.280012
0.284412
0.289074
0.293996
0.299172
0.304601
0.310274
0.316186
0.322328
0.32869
0.335262
0.342031
0.348986
0.356089
0.244914
0.24502
0.245583
0.246346
0.247422
0.248731
0.250304
0.252121
0.254191
0.256511
0.259083
0.261911
0.264994
0.268343
0.271948
0.275816
0.279946
0.284338
0.28899
0.2939
0.299065
0.304479
0.310136
0.31603
0.322152
0.328493
0.33504
0.341782
0.348707
0.355774
0.244892
0.244998
0.245559
0.246322
0.247395
0.248702
0.250273
0.252087
0.254153
0.256468
0.259036
0.261857
0.264937
0.268275
0.271871
0.275729
0.279848
0.284227
0.288864
0.293758
0.298903
0.304296
0.30993
0.315797
0.321889
0.328196
0.334707
0.341407
0.34829
0.355302
0.244863
0.244968
0.245528
0.246289
0.24736
0.248664
0.250231
0.252041
0.254102
0.256411
0.258972
0.261786
0.264857
0.268184
0.271769
0.275613
0.279717
0.284078
0.288696
0.293568
0.298688
0.304052
0.309654
0.315486
0.321539
0.327802
0.334263
0.340909
0.347734
0.354673
0.244827
0.244931
0.24549
0.246248
0.247316
0.248617
0.250179
0.251983
0.254038
0.25634
0.258892
0.261696
0.264757
0.26807
0.271641
0.275469
0.279553
0.283893
0.288487
0.29333
0.298419
0.303748
0.309311
0.315098
0.321101
0.327309
0.333709
0.340286
0.34704
0.353887
0.244783
0.244887
0.245443
0.246199
0.247263
0.24856
0.250116
0.251914
0.253961
0.256254
0.258797
0.261589
0.264637
0.267934
0.271488
0.275296
0.279357
0.283672
0.288235
0.293046
0.298097
0.303384
0.308898
0.314633
0.320576
0.326718
0.333044
0.33954
0.346208
0.352946
0.244732
0.244835
0.245389
0.246142
0.247202
0.248493
0.250043
0.251834
0.253872
0.256155
0.258686
0.261464
0.264497
0.267776
0.271309
0.275094
0.279129
0.283413
0.287943
0.292714
0.297721
0.302959
0.308418
0.31409
0.319964
0.326029
0.33227
0.33867
0.345238
0.35185
0.244674
0.244776
0.245328
0.246077
0.247132
0.248417
0.24996
0.251742
0.25377
0.256041
0.258559
0.261321
0.264338
0.267595
0.271106
0.274863
0.278868
0.283118
0.287608
0.292335
0.297293
0.302474
0.30787
0.313471
0.319266
0.325243
0.331386
0.337677
0.344132
0.3506
0.244609
0.24471
0.245259
0.246004
0.247054
0.248332
0.249867
0.251639
0.253656
0.255914
0.258417
0.261161
0.264158
0.267393
0.270877
0.274605
0.278575
0.282786
0.287233
0.29191
0.296811
0.301928
0.307253
0.312775
0.318481
0.324359
0.330393
0.336562
0.34289
0.349196
0.244537
0.244637
0.245182
0.245923
0.246967
0.248238
0.249764
0.251525
0.25353
0.255773
0.258259
0.260984
0.263959
0.267168
0.270623
0.274317
0.278251
0.282418
0.286816
0.291438
0.296276
0.301324
0.306569
0.312003
0.317611
0.323379
0.329292
0.335325
0.341512
0.34764
0.244458
0.244556
0.245099
0.245835
0.246872
0.248134
0.249651
0.2514
0.253391
0.255618
0.258085
0.260789
0.26374
0.266921
0.270344
0.274002
0.277894
0.282014
0.286358
0.290919
0.295689
0.300659
0.305818
0.311155
0.316654
0.322303
0.328082
0.333967
0.34
0.345932
0.244371
0.244469
0.245008
0.245738
0.246769
0.248022
0.249527
0.251264
0.25324
0.25545
0.257896
0.260572
0.263502
0.266652
0.27004
0.273659
0.277505
0.281574
0.285859
0.290354
0.29505
0.299935
0.305
0.310231
0.315613
0.32113
0.326765
0.332488
0.338353
0.344073
0.244278
0.244375
0.244909
0.245635
0.246657
0.247901
0.249394
0.251117
0.253076
0.255268
0.257691
0.260328
0.263243
0.266362
0.269712
0.273288
0.277085
0.281098
0.28532
0.289743
0.294358
0.299152
0.304115
0.309231
0.314486
0.319862
0.32534
0.33089
0.336574
0.342066
0.244179
0.244274
0.244804
0.245523
0.246537
0.24777
0.249251
0.250959
0.252901
0.255072
0.257473
0.260125
0.262966
0.26605
0.26936
0.272889
0.276634
0.280587
0.284741
0.289087
0.293614
0.298311
0.303163
0.308157
0.313275
0.318499
0.32381
0.329172
0.334662
0.33991
0.244072
0.244166
0.244691
0.245404
0.246409
0.247632
0.249099
0.250791
0.252714
0.254864
0.257239
0.259854
0.262669
0.265716
0.268983
0.272463
0.276151
0.28004
0.284121
0.288385
0.292819
0.297411
0.302146
0.307008
0.31198
0.317042
0.322173
0.327335
0.332619
0.337607
0.243959
0.244051
0.244572
0.245278
0.246273
0.247484
0.248937
0.250612
0.252515
0.254642
0.25699
0.259568
0.262353
0.265361
0.268582
0.272009
0.275637
0.279458
0.283462
0.287637
0.291973
0.296453
0.301063
0.305785
0.310601
0.31549
0.320431
0.325381
0.330446
0.335159
0.243839
0.24393
0.244446
0.245144
0.24613
0.247328
0.248766
0.250422
0.252305
0.254406
0.256724
0.259271
0.26202
0.264986
0.268157
0.271529
0.275093
0.278841
0.282763
0.286845
0.291075
0.295437
0.299914
0.304488
0.309139
0.313845
0.318585
0.323309
0.328144
0.332567
0.243713
0.243803
0.244313
0.245004
0.245979
0.247163
0.248585
0.250223
0.252083
0.254158
0.256441
0.258959
0.261668
0.264589
0.267708
0.271021
0.274518
0.27819
0.282024
0.286008
0.290127
0.294364
0.298701
0.303118
0.307595
0.312108
0.316634
0.321122
0.325713
0.329831
0.243581
0.243669
0.244173
0.244856
0.24582
0.246991
0.248396
0.250013
0.25185
0.253897
0.256157
0.258629
0.261298
0.264171
0.267237
0.270487
0.273913
0.277504
0.281247
0.285127
0.289129
0.293234
0.297423
0.301675
0.305968
0.310278
0.314581
0.31882
0.323156
0.326955
0.243442
0.243529
0.244027
0.244702
0.245654
0.24681
0.248197
0.249793
0.251605
0.253624
0.255865
0.258284
0.26091
0.263733
0.266741
0.269927
0.273279
0.276785
0.280431
0.284203
0.288081
0.292047
0.296081
0.30016
0.30426
0.308357
0.312425
0.316403
0.320472
0.323938
0.243297
0.243383
0.243875
0.244541
0.245481
0.246621
0.247989
0.249563
0.251349
0.253336
0.255538
0.257922
0.260505
0.263275
0.266223
0.26934
0.272614
0.276031
0.279577
0.283234
0.286984
0.290805
0.294676
0.298573
0.302472
0.306345
0.310168
0.313872
0.317662
0.320783
0.243147
0.243232
0.243716
0.244373
0.2453
0.246424
0.247773
0.249324
0.251083
0.253033
0.2552
0.257546
0.260081
0.262797
0.265682
0.268728
0.27192
0.275245
0.278685
0.282223
0.285837
0.289506
0.293208
0.296915
0.300603
0.304242
0.30781
0.311229
0.314729
0.317489
0.24299
0.243074
0.243552
0.244199
0.245112
0.24622
0.247548
0.249075
0.250805
0.252735
0.254852
0.257155
0.25964
0.262299
0.265119
0.26809
0.271197
0.274425
0.277756
0.281168
0.284642
0.288153
0.291677
0.295186
0.298654
0.30205
0.305351
0.308473
0.311672
0.314059
0.242827
0.242911
0.243381
0.244019
0.244918
0.246008
0.247315
0.248817
0.250516
0.252417
0.25449
0.256748
0.259182
0.261781
0.264534
0.267427
0.270446
0.273573
0.276789
0.280072
0.283399
0.286745
0.290084
0.293387
0.296626
0.299769
0.302793
0.305606
0.308492
0.310493
0.242659
0.242742
0.243205
0.243833
0.244717
0.245789
0.247074
0.24855
0.250215
0.252079
0.254114
0.256326
0.258707
0.261244
0.263926
0.266739
0.269666
0.272688
0.275785
0.278934
0.282109
0.285283
0.28843
0.291519
0.29452
0.297399
0.300136
0.302628
0.305191
0.306792
0.242485
0.242568
0.243023
0.24364
0.24451
0.245563
0.246825
0.248273
0.249913
0.251732
0.253726
0.25589
0.258214
0.260688
0.263297
0.266026
0.268858
0.271772
0.274746
0.277754
0.280771
0.283768
0.286716
0.289581
0.292336
0.294942
0.297381
0.29954
0.301768
0.302957
0.242306
0.242388
0.242836
0.243442
0.244296
0.245329
0.246567
0.24798
0.249599
0.251375
0.253326
0.255439
0.257706
0.260113
0.262647
0.265289
0.268023
0.270824
0.27367
0.276533
0.279387
0.282199
0.284941
0.287576
0.290075
0.292397
0.294528
0.296342
0.298224
0.298987
0.242122
0.242204
0.242643
0.243238
0.244076
0.245089
0.246302
0.247669
0.249267
0.251007
0.252912
0.254974
0.257181
0.25952
0.261975
0.264529
0.26716
0.269845
0.272559
0.275273
0.277957
0.280579
0.283106
0.285502
0.287737
0.289765
0.291578
0.293034
0.29456
0.294882
0.241933
0.242014
0.242445
0.243029
0.24385
0.244842
0.246028
0.247417
0.248928
0.250628
0.252487
0.254495
0.25664
0.258908
0.261283
0.263744
0.26627
0.268835
0.271413
0.273972
0.276482
0.278906
0.281213
0.283362
0.285323
0.287047
0.28853
0.289615
0.290775
0.290642
0.241738
0.24182
0.242243
0.242814
0.243618
0.244589
0.245744
0.247088
0.248579
0.250238
0.252049
0.254002
0.256083
0.258279
0.26057
0.262937
0.265354
0.267796
0.270233
0.272632
0.274962
0.277183
0.279262
0.281155
0.282834
0.284242
0.285387
0.286086
0.286869
0.286267
0.241539
0.241621
0.242035
0.242595
0.24338
0.244328
0.24547
0.24676
0.248222
0.249838
0.251599
0.253495
0.255511
0.257632
0.259838
0.262106
0.264412
0.266726
0.269018
0.271254
0.273397
0.275408
0.277252
0.278881
0.280269
0.281351
0.282147
0.282444
0.282841
0.281753
0.241335
0.241418
0.241823
0.24237
0.243137
0.244059
0.245172
0.246433
0.247857
0.249428
0.251138
0.252975
0.254924
0.256968
0.259086
0.261253
0.263444
0.265628
0.267771
0.269837
0.271789
0.273584
0.275186
0.276543
0.27763
0.278373
0.27881
0.278686
0.278691
0.277097
0.241127
0.241211
0.241607
0.242141
0.242889
0.243795
0.244869
0.246099
0.247483
0.249008
0.250666
0.252442
0.254322
0.256287
0.258315
0.26038
0.262453
0.264502
0.266493
0.268385
0.270141
0.271714
0.273067
0.274143
0.274921
0.275312
0.27538
0.274815
0.274422
0.272297
0.240914
0.240999
0.241386
0.241907
0.242635
0.243515
0.244561
0.245757
0.247099
0.248578
0.250181
0.251896
0.253706
0.25559
0.257525
0.259485
0.261438
0.26335
0.265184
0.266899
0.268454
0.2698
0.270898
0.271685
0.272146
0.272173
0.271862
0.270832
0.270044
0.267356
0.240697
0.240784
0.24116
0.241667
0.242377
0.243229
0.244246
0.245405
0.246705
0.248135
0.249682
0.251333
0.253069
0.254869
0.256708
0.258557
0.260385
0.262154
0.263826
0.265357
0.266704
0.267814
0.268649
0.269138
0.269271
0.268921
0.268222
0.266696
0.265523
0.262234
0.240476
0.240564
0.240931
0.241425
0.242112
0.242939
0.243924
0.245045
0.246302
0.24768
0.249169
0.250753
0.252412
0.254123
0.255861
0.257595
0.25929
0.260908
0.262409
0.263744
0.264869
0.265729
0.266283
0.266453
0.26624
0.265487
0.264381
0.262318
0.260768
0.256801
0.240252
0.240343
0.240701
0.241182
0.24185
0.242652
0.243607
0.244694
0.24591
0.247242
0.248678
0.2502
0.251788
0.253419
0.255064
0.256691
0.258264
0.259741
0.261079
0.262228
0.263141
0.263757
0.264035
0.263886
0.263318
0.262144
0.260612
0.25797
0.25608
0.251307
0.240025
0.240122
0.240474
0.240944
0.241596
0.242378
0.24331
0.244368
0.245553
0.24685
0.248247
0.249726
0.251266
0.252843
0.254427
0.255984
0.257476
0.258861
0.260092
0.261118
0.261886
0.262332
0.26241
0.26202
0.261172
0.259632
0.257717
0.254478
0.252399
0.246891
0.239792
0.239888
0.240226
0.240676
0.2413
0.242047
0.242937
0.243946
0.245074
0.246305
0.247628
0.249023
0.250469
0.251939
0.253404
0.254829
0.256173
0.257392
0.25844
0.25926
0.259802
0.259995
0.259795
0.259089
0.257904
0.255937
0.253652
0.249657
0.247498
0.240362
)
;

boundaryField
{
    inlet
    {
        type            zeroGradient;
    }
    outlet
    {
        type            fixedValue;
        value           nonuniform 0();
    }
    cylinder
    {
        type            zeroGradient;
    }
    top
    {
        type            symmetryPlane;
    }
    bottom
    {
        type            symmetryPlane;
    }
    defaultFaces
    {
        type            empty;
    }
    procBoundary8to4
    {
        type            processor;
        value           nonuniform List<scalar> 
49
(
0.830382
0.76969
0.737929
0.698258
0.665625
0.632265
0.601402
0.601402
0.571707
0.543863
0.517685
0.493282
0.470589
0.449563
0.43012
0.412174
0.395623
0.380388
0.366341
0.244936
0.245043
0.245606
0.246371
0.247448
0.24876
0.250336
0.252156
0.25423
0.256553
0.259131
0.261965
0.265053
0.268412
0.272025
0.275903
0.280044
0.284449
0.289116
0.294043
0.299226
0.304662
0.310343
0.316264
0.322416
0.328789
0.335374
0.342157
0.349125
0.356247
)
;
    }
    procBoundary8to9
    {
        type            processor;
        value           nonuniform List<scalar> 
78
(
0.0653581
0.0674928
0.0674928
0.0683351
0.0683351
0.069224
0.069224
0.0697397
0.0697397
0.0698691
0.0802365
0.0802365
0.0806168
0.0806168
0.0804679
0.0924724
0.0924724
0.0926381
0.105611
0.105611
0.106222
0.120252
0.120252
0.121575
0.13676
0.151955
0.151955
0.155497
0.171911
0.188305
0.188305
0.195241
0.212931
0.230568
0.230568
0.241034
0.259922
0.278686
0.297317
0.315789
0.315789
0.337206
0.356929
0.376418
0.395646
0.414584
0.414584
0.440224
0.459876
0.479148
0.498014
0.516443
0.53441
0.551888
0.56885
0.56885
0.62694
0.644395
0.661206
0.677349
0.692798
0.707528
0.721516
0.734742
0.747182
0.758819
0.769634
0.779609
0.788729
0.788729
0.819787
0.827484
0.834246
0.840063
0.844926
0.848825
0.851754
0.853709
)
;
    }
    procBoundary8to12
    {
        type            processor;
        value           nonuniform List<scalar> 
69
(
0.0817022
0.0889976
0.0962941
0.0962941
0.100296
0.107224
0.11415
0.12107
0.12107
0.127557
0.127557
0.133144
0.133144
0.138413
0.138413
0.137049
0.14208
0.14208
0.146875
0.146875
0.151442
0.151442
0.155786
0.155786
0.159911
0.169537
0.159911
0.16382
0.169537
0.173119
0.173119
0.176523
0.176523
0.179444
0.179444
0.182657
0.182657
0.18746
0.238054
0.238146
0.238173
0.23811
0.23793
0.237602
0.237094
0.236371
0.235397
0.234136
0.232555
0.230618
0.2283
0.225564
0.222409
0.218781
0.214755
0.210147
0.205387
0.199468
0.195124
0.184803
0.236881
0.236894
0.236963
0.237045
0.237158
0.237274
0.237394
0.238054
0.237495
)
;
    }
}


// ************************************************************************* //
