/*--------------------------------*- C++ -*----------------------------------*\
  =========                 |
  \\      /  F ield         | OpenFOAM: The Open Source CFD Toolbox
   \\    /   O peration     | Website:  https://openfoam.org
    \\  /    A nd           | Version:  7
     \\/     M anipulation  |
\*---------------------------------------------------------------------------*/
FoamFile
{
    version     2.0;
    format      ascii;
    class       volScalarField;
    location    "5";
    object      p;
}
// * * * * * * * * * * * * * * * * * * * * * * * * * * * * * * * * * * * * * //

dimensions      [0 2 -2 0 0 0 0];

internalField   nonuniform List<scalar> 
2625
(
0.000810432
0.00102735
0.00118523
0.00129254
0.00135713
0.0013862
0.00138631
0.0013632
0.00132212
0.00126725
0.0012028
0.00113114
0.00105633
0.000977926
0.000902078
0.000822311
0.000752973
0.00067184
0.000618284
0.000526843
0.000507793
0.00037743
0.000439766
0.000193484
0.000458906
-0.000102187
0.000679634
-0.0454238
-0.0417269
-0.0381665
-0.0347487
-0.0314798
-0.0283649
-0.025409
-0.0226161
-0.0199894
-0.0175312
-0.0152429
-0.0131247
-0.0111759
-0.00939455
-0.00777765
-0.00632105
-0.00501952
-0.00386683
-0.00285581
-0.00197849
-0.0012262
-0.000589735
-5.9529e-05
0.000374196
0.000721295
0.000991398
0.00119402
0.00133816
0.00143235
0.00148451
0.00150187
0.00149103
0.00145773
0.00140723
0.00134366
0.00127127
0.00119232
0.00111092
0.00102644
0.000945259
0.00086037
0.000786909
0.000701211
0.000644933
0.000548722
0.000529147
0.000392125
0.000458407
0.000199625
0.000479172
-0.0001093
0.000709286
-0.0451545
-0.041437
-0.0378586
-0.0344257
-0.0311441
-0.0280193
-0.025056
-0.0222582
-0.019629
-0.0171706
-0.0148842
-0.01277
-0.0108272
-0.00905356
-0.00744597
-0.0060001
-0.00471053
-0.00357083
-0.00257365
-0.00171081
-0.000973445
-0.000352184
0.000162731
0.000581238
0.000913333
0.0011688
0.00135725
0.00148778
0.001569
0.00160888
0.00161471
0.00159309
0.00154978
0.00149003
0.00141795
0.00133778
0.0012517
0.00116388
0.00107347
0.000987097
0.000897224
0.000819758
0.000729622
0.000670713
0.000569865
0.000549804
0.000406303
0.000476459
0.000205512
0.000498838
-0.000116259
0.000738038
-0.0448758
-0.041139
-0.0375439
-0.0340969
-0.0308039
-0.0276701
-0.0247004
-0.0218985
-0.0192675
-0.0168096
-0.0145259
-0.0124164
-0.01048
-0.00871458
-0.0071167
-0.0056819
-0.00440457
-0.00327809
-0.00229492
-0.00144667
-0.000724325
-0.000118299
0.000381326
0.000784651
0.00110181
0.00134274
0.00151712
0.00163417
0.00170256
0.00173033
0.00172478
0.00169256
0.00163941
0.00157059
0.00149017
0.00140239
0.00130934
0.00121525
0.00111906
0.00102763
0.000932905
0.000851548
0.000757103
0.000695642
0.000590298
0.000569773
0.000419992
0.000493915
0.000211184
0.000517873
-0.000123006
0.000765847
-0.0445883
-0.0408336
-0.0372231
-0.0337632
-0.0304598
-0.0273182
-0.024343
-0.021538
-0.0189062
-0.0164496
-0.0141692
-0.012065
-0.0101356
-0.00837887
-0.00679113
-0.00536774
-0.00410293
-0.00298988
-0.00202087
-0.00118733
-0.000480031
0.000110765
0.000595153
0.000983387
0.00128573
0.00151228
0.00167278
0.00177656
0.00183234
0.00184822
0.00183153
0.00178894
0.00172618
0.00164852
0.00155998
0.0014648
0.00136499
0.00126482
0.00116303
0.00106671
0.000967307
0.000882192
0.00078359
0.000719668
0.000609989
0.000589019
0.000433189
0.000510744
0.000216666
0.000536237
-0.000129484
0.000792669
-0.0442938
-0.0405227
-0.0368984
-0.0334271
-0.0301148
-0.0269665
-0.023987
-0.02118
-0.0185484
-0.016094
-0.0138178
-0.0117195
-0.00979786
-0.00805029
-0.00647312
-0.00506148
-0.00380944
-0.00270998
-0.0017552
-0.000936348
-0.000244016
0.000331708
0.000801076
0.00117449
0.00146235
0.00167486
0.00182186
0.00191277
0.00195636
0.00196078
0.00193339
0.00188085
0.00180889
0.00172278
0.00162649
0.00152427
0.00141802
0.00131207
0.00120496
0.00110399
0.00100013
0.000911452
0.000808897
0.000742641
0.000628833
0.000607452
0.000445845
0.000526887
0.00022196
0.000553876
-0.000135647
0.000818458
-0.0439965
-0.0402101
-0.0365728
-0.0330909
-0.0297702
-0.0266161
-0.0236329
-0.0208243
-0.0181932
-0.0157414
-0.0134696
-0.0113775
-0.00946369
-0.00772541
-0.00615885
-0.00475897
-0.00351964
-0.00243371
-0.00149306
-0.000688776
-1.12743e-05
0.000549524
0.00100403
0.00136278
0.00163631
0.00183494
0.0019686
0.00204679
0.00207834
0.00207143
0.00203346
0.00197109
0.00189006
0.0017956
0.00169167
0.00158249
0.0014699
0.00135825
0.00124591
0.00114038
0.00103215
0.000939953
0.000833536
0.000764973
0.000647157
0.000625323
0.000458158
0.000542482
0.000227171
0.000570852
-0.000141455
0.000843214
-0.0436943
-0.0398895
-0.0362362
-0.0327407
-0.0294089
-0.0262459
-0.0232561
-0.0204433
-0.0178102
-0.0153586
-0.013089
-0.0110012
-0.00909353
-0.00736315
-0.00580609
-0.00441718
-0.00319015
-0.00211764
-0.00119136
-0.000402224
0.00025955
0.000804227
0.0012424
0.00158479
0.00184209
0.00202478
0.00214292
0.00220614
0.00222337
0.00220288
0.00215211
0.00207778
0.00198564
0.00188095
0.00176762
0.00164989
0.00152951
0.00141089
0.00129218
0.00118108
0.00106764
0.00097119
0.000860315
0.000788897
0.000666702
0.00064398
0.000471115
0.000558276
0.000232764
0.000587543
-0.000146839
0.000867036
-0.043349
-0.0395222
-0.0358494
-0.0323371
-0.028991
-0.0258163
-0.0228175
-0.0199982
-0.0173611
-0.014908
-0.0126395
-0.0105551
-0.00865312
-0.00693062
-0.0053835
-0.00400643
-0.00279297
-0.00173558
-0.000825772
-5.42326e-05
0.000589033
0.00111452
0.00153306
0.00185561
0.00209307
0.00225614
0.00235508
0.00239969
0.00239904
0.00236154
0.00229472
0.00220538
0.0020993
0.00198178
0.00185671
0.00172833
0.00159831
0.00147107
0.0013446
0.00122671
0.00110704
0.00100547
0.00088945
0.000814538
0.000687566
0.000663441
0.000484779
0.000574217
0.000238826
0.000603825
-0.00015162
0.000889836
-0.0429272
-0.0391121
-0.0354533
-0.0319569
-0.0286287
-0.0254736
-0.0224958
-0.0196988
-0.0170851
-0.014656
-0.0124119
-0.0103521
-0.00847454
-0.00677599
-0.00525206
-0.00389715
-0.00270454
-0.00166649
-0.000774309
-1.85447e-05
0.000610902
0.00112458
0.00153332
0.00184803
0.00207952
0.00223836
0.00233464
0.00237796
0.00237722
0.00234058
0.00227536
0.00218818
0.00208462
0.0019698
0.00184749
0.0017218
0.0015943
0.00146938
0.0013449
0.00122882
0.00111049
0.00101024
0.000894801
0.000821003
0.000693589
0.000671026
0.000490103
0.000583097
0.000241434
0.000615695
-0.000155659
0.000910238
-0.042753
-0.0390502
-0.0355035
-0.0321184
-0.0288999
-0.0258521
-0.0229785
-0.0202816
-0.0177628
-0.0154228
-0.0132609
-0.0112753
-0.00946332
-0.00782086
-0.00634285
-0.00502315
-0.00385465
-0.00282942
-0.00193878
-0.0011735
-0.000523945
1.97707e-05
0.000467595
0.000829385
0.00111475
0.00133296
0.00149272
0.00160224
0.00166906
0.00170007
0.00170141
0.00167866
0.00163654
0.00157949
0.00151075
0.00143414
0.00135101
0.00126579
0.00117638
0.00109101
0.000999195
0.000921789
0.000825501
0.000768195
0.000653797
0.000643138
0.000469884
0.000572394
0.000232715
0.000617584
-0.000160374
0.0009281
-0.0418482
-0.0381739
-0.0346579
-0.0313056
-0.0281217
-0.0251101
-0.022274
-0.0196156
-0.0171362
-0.0148359
-0.0127138
-0.010768
-0.00899525
-0.00739128
-0.00595071
-0.00466713
-0.00353319
-0.00254076
-0.00168097
-0.000944473
-0.000321515
0.000197837
0.000623548
0.000965451
0.0012331
0.00143566
0.00158172
0.00167937
0.00173596
0.00175824
0.00175216
0.00172315
0.00167575
0.00161426
0.00154179
0.00146202
0.00137621
0.00128869
0.00119727
0.00111016
0.00101671
0.000937982
0.000840191
0.000782005
0.000665848
0.000655168
0.000479015
0.000583697
0.000237663
0.000630657
-0.000163345
0.000950728
-0.0408717
-0.0372131
-0.0337143
-0.0303808
-0.027217
-0.0242269
-0.0214136
-0.0187791
-0.0163246
-0.0140504
-0.0119553
-0.0100373
-0.00829316
-0.00671844
-0.0053077
-0.00405443
-0.0029512
-0.00198975
-0.00116111
-0.00045579
0.000136082
0.000624584
0.00101983
0.00133182
0.00157026
0.00174446
0.00186319
0.00193465
0.00196635
0.0019651
0.00193699
0.00188747
0.00182114
0.00174231
0.00165405
0.00156001
0.0014614
0.00136247
0.00126092
0.00116491
0.00106358
0.000978108
0.00087416
0.000811148
0.000689849
0.000676426
0.000494867
0.000600146
0.000245521
0.000646617
-0.000166714
0.000974784
-0.0399613
-0.0363268
-0.0328533
-0.029546
-0.0264094
-0.0234472
-0.0206624
-0.0180571
-0.0156321
-0.0133877
-0.0113225
-0.00943451
-0.00772026
-0.00617529
-0.00479403
-0.00356988
-0.00249534
-0.00156204
-0.000760977
-8.2572e-05
0.000483109
0.000946207
0.0013169
0.00160523
0.00182097
0.00197349
0.0020716
0.00212355
0.00213687
0.00211842
0.0020743
0.00200995
0.00192999
0.00183867
0.00173906
0.00163477
0.00152693
0.00141974
0.00131082
0.00120831
0.00110116
0.0010107
0.000902096
0.000835489
0.000710125
0.000694778
0.0005086
0.000614956
0.000252368
0.000661746
-0.000170298
0.000998514
-0.0390688
-0.0354615
-0.0320164
-0.0287384
-0.025632
-0.0227007
-0.0199474
-0.0173739
-0.0149811
-0.0127689
-0.0107359
-0.00887986
-0.00719721
-0.00568334
-0.00433257
-0.00313819
-0.00209259
-0.00118732
-0.000413287
0.000239132
0.000779925
0.00121927
0.00156738
0.00183431
0.00202985
0.00216336
0.00224367
0.00227899
0.00227686
0.00224411
0.00218681
0.00211037
0.00201935
0.00191799
0.00180928
0.00169678
0.00158156
0.00146778
0.00135297
0.00124524
0.0011334
0.0010389
0.000926488
0.000856968
0.000728169
0.000711338
0.000521049
0.000628683
0.00025865
0.000676189
-0.000173798
0.00102176
-0.0381743
-0.0345942
-0.0311773
-0.0279285
-0.0248523
-0.021952
-0.0192302
-0.0166887
-0.0143281
-0.0121483
-0.0101477
-0.0083238
-0.006673
-0.00519051
-0.00387052
-0.0027062
-0.00168982
-0.000812861
-6.61396e-05
0.000560038
0.00107571
0.00149111
0.00181646
0.00206186
0.0022371
0.00235155
0.00241402
0.00243273
0.00241518
0.00236819
0.00229777
0.00220933
0.00210736
0.00199605
0.00187834
0.00175774
0.00163525
0.00151497
0.00139436
0.0012815
0.00116505
0.00106658
0.000950425
0.000878032
0.000745878
0.000727567
0.000533281
0.000642125
0.000264853
0.000690348
-0.000177171
0.00104465
-0.0409946
-0.0372819
-0.0337288
-0.0303401
-0.0271206
-0.0240744
-0.0212049
-0.0185145
-0.0160048
-0.0136764
-0.0115288
-0.00956045
-0.00776861
-0.00614952
-0.00469828
-0.00340894
-0.00227457
-0.00128733
-0.000438596
0.000280884
0.000880876
0.00137148
0.00176295
0.00206557
0.00228945
0.0024444
0.00253978
0.0025844
0.00258648
0.0025535
0.00249224
0.0024087
0.00230823
0.00219529
0.00207401
0.0019473
0.00181858
0.0016888
0.00156201
0.00143558
0.00131758
0.00119652
0.00109407
0.000974188
0.000898909
0.000763429
0.000743604
0.000545395
0.000655363
0.000271016
0.00070427
-0.000180439
0.00106719
-0.0400814
-0.036395
-0.0328694
-0.0295091
-0.026319
-0.0233032
-0.0204647
-0.0178059
-0.0153282
-0.0130319
-0.0109166
-0.00898044
-0.00722059
-0.00563313
-0.00421302
-0.0029542
-0.0018496
-0.000891281
-7.05487e-05
0.000621945
0.00119603
0.00166184
0.00202971
0.00230991
0.00251259
0.00264756
0.0027242
0.00275131
0.00273707
0.00268896
0.00261372
0.00251733
0.00240508
0.00228141
0.00215038
0.00201485
0.00187818
0.00174128
0.00160812
0.001476
0.00135296
0.00122737
0.00112102
0.00099749
0.00091937
0.000780646
0.000759315
0.000557288
0.000668323
0.000277088
0.000717903
-0.00018361
0.00108937
-0.0391744
-0.0355146
-0.0320167
-0.0286853
-0.025525
-0.0225397
-0.0197324
-0.0171053
-0.0146597
-0.0123958
-0.0103128
-0.00840883
-0.00668095
-0.00512506
-0.00373598
-0.00250753
-0.00143252
-0.000502929
0.000290048
0.000955826
0.00150429
0.00194565
0.00229025
0.0025484
0.00273026
0.00284564
0.00290392
0.00291388
0.00288371
0.00282083
0.00273198
0.00262306
0.00249936
0.00236524
0.00222473
0.00208063
0.00193624
0.00179241
0.00165305
0.00151539
0.00138745
0.00125748
0.00114732
0.00102024
0.000939341
0.000797466
0.000774649
0.000568924
0.000680975
0.000283051
0.000731242
-0.000186685
0.00111115
-0.0382743
-0.0346415
-0.0311716
-0.0278693
-0.024739
-0.0217844
-0.0190085
-0.0164132
-0.0139998
-0.0117682
-0.00971749
-0.00784572
-0.00614973
-0.00462529
-0.00326711
-0.00206885
-0.00102323
-0.000122124
0.00064336
0.00128271
0.00180588
0.00222311
0.00254478
0.00278124
0.00294264
0.0030388
0.0030791
0.00307229
0.00302654
0.00294925
0.00284711
0.002726
0.00259114
0.00244686
0.00229713
0.00214468
0.00199279
0.00184222
0.00169683
0.00155379
0.00142108
0.00128683
0.00117297
0.00104243
0.000958819
0.000813886
0.000789603
0.000580303
0.000693313
0.000288902
0.000744269
-0.000189664
0.0011325
-0.0373823
-0.0337768
-0.0303352
-0.0270621
-0.0239619
-0.0210382
-0.0182937
-0.0157304
-0.013349
-0.0111497
-0.0091313
-0.00729161
-0.00562737
-0.00413422
-0.00280672
-0.00163843
-0.000621949
0.000250956
0.000989252
0.0016025
0.00210071
0.00249417
0.00279329
0.00300843
0.00314975
0.00322709
0.00324977
0.00322658
0.00316561
0.00307426
0.00295916
0.00282617
0.00268045
0.00252628
0.00236758
0.00220703
0.00204783
0.00189071
0.00173946
0.00159119
0.00145383
0.00131542
0.00119795
0.00106406
0.000977801
0.000829903
0.000804176
0.000591418
0.000705334
0.000294636
0.000756976
-0.000192546
0.00115342
-0.0364997
-0.0329216
-0.0295084
-0.0262648
-0.0231948
-0.0203021
-0.0175891
-0.0150576
-0.0127084
-0.0105412
-0.00855495
-0.00674718
-0.00511451
-0.00365242
-0.00235536
-0.00121675
-0.000229099
0.000615931
0.00132739
0.00191491
0.00238854
0.00275862
0.00303558
0.00322981
0.00335147
0.00341037
0.00341585
0.00337665
0.00330085
0.00319579
0.00306808
0.00292353
0.00276725
0.00260347
0.00243605
0.00226763
0.00210135
0.00193786
0.00178092
0.00162757
0.00148569
0.00134325
0.00122227
0.00108512
0.000996275
0.000845505
0.000818391
0.000602255
0.000717032
0.000300247
0.000769356
-0.000195332
0.00117388
-0.0356277
-0.0320773
-0.0286927
-0.0254785
-0.0224389
-0.0195771
-0.0168955
-0.0143958
-0.0120786
-0.00994351
-0.00798918
-0.00621312
-0.00461176
-0.00318046
-0.00191353
-0.000804279
0.000154899
0.000972429
0.00165744
0.00221963
0.0026691
0.00301623
0.00327147
0.00344522
0.00354764
0.00358854
0.00357722
0.00352241
0.00343216
0.00331377
0.00317381
0.00301802
0.00285149
0.00267839
0.00250252
0.00232646
0.0021533
0.00198365
0.00182118
0.0016629
0.00151665
0.00137029
0.00124589
0.00110559
0.00101423
0.000860679
0.00083224
0.000612813
0.000728399
0.000305728
0.000781402
-0.000198021
0.00119386
-0.0384528
-0.0347677
-0.031245
-0.0278891
-0.0247044
-0.0216951
-0.0188642
-0.016214
-0.0137459
-0.0114605
-0.00935733
-0.00743472
-0.00569009
-0.00411975
-0.0027189
-0.00148174
-0.00040146
0.000529646
0.0013201
0.00197909
0.0025164
0.00294217
0.0032668
0.00350078
0.0036545
0.00373813
0.00376147
0.00373379
0.0036638
0.00355949
0.00342815
0.00327629
0.00310961
0.00293313
0.00275099
0.00256693
0.00238349
0.00220366
0.00202804
0.00186022
0.00169717
0.00154668
0.00139653
0.00126882
0.00112546
0.00103165
0.000875414
0.000845381
0.000623073
0.000739427
0.000311075
0.000793104
-0.000200613
0.00121333
-0.0375794
-0.0339211
-0.0304261
-0.0270989
-0.0239438
-0.0209647
-0.0181645
-0.0155455
-0.0131089
-0.0108551
-0.00878349
-0.00689229
-0.00517876
-0.00363906
-0.00226828
-0.00106048
-8.7391e-06
0.000894747
0.00165858
0.00229205
0.00280495
0.0032075
0.00351013
0.00372333
0.00385751
0.00392283
0.00392906
0.00388547
0.00380071
0.00368277
0.00353886
0.00337547
0.00319823
0.00301214
0.00282126
0.00262927
0.00243867
0.00225241
0.00207101
0.00189803
0.00173036
0.00157576
0.00142194
0.00129103
0.00114471
0.00104853
0.000889704
0.000858402
0.000633029
0.000750109
0.000316281
0.000804454
-0.000203109
0.00123228
-0.0367208
-0.0330893
-0.0296221
-0.0263234
-0.0231978
-0.0202487
-0.0174791
-0.0148911
-0.0124857
-0.0102632
-0.00822281
-0.00636265
-0.00467982
-0.00317034
-0.00182917
-0.000650253
0.000373438
0.00124981
0.00198754
0.00259599
0.00308502
0.00346488
0.00374602
0.00393896
0.00405411
0.00410161
0.00409121
0.00403217
0.00393309
0.00380193
0.00364586
0.0034713
0.00328386
0.00308847
0.00288913
0.0026895
0.00249199
0.00229952
0.00211254
0.00193456
0.00176244
0.00160387
0.00144651
0.0013125
0.00116333
0.00106485
0.000903529
0.000870963
0.000642674
0.000760441
0.000321341
0.000815443
-0.000205508
0.00125069
-0.0358785
-0.0322738
-0.0288342
-0.025564
-0.0224676
-0.0195484
-0.0168091
-0.0142518
-0.0118772
-0.00968568
-0.0076761
-0.00584654
-0.00419394
-0.00271419
-0.00140212
-0.000251559
0.000744625
0.00159443
0.00230663
0.00289062
0.00335634
0.00371407
0.00397428
0.00414751
0.00424414
0.00427434
0.00424782
0.0041738
0.00406086
0.00391691
0.00374907
0.00356373
0.00336645
0.00316208
0.0029546
0.00274759
0.00254343
0.00234496
0.00215261
0.00196982
0.0017934
0.00163101
0.00147023
0.00133323
0.00118131
0.00108061
0.000916887
0.000883057
0.000652002
0.000770414
0.000326249
0.000826063
-0.000207811
0.00126854
-0.0350542
-0.0314761
-0.028064
-0.0248221
-0.0217546
-0.018865
-0.0161557
-0.0136286
-0.0112845
-0.00912342
-0.0071442
-0.00534472
-0.00372182
-0.00227124
-0.000987693
0.000135102
0.00110438
0.00192823
0.00261549
0.00317564
0.00361866
0.00395485
0.00419472
0.00434879
0.00442748
0.00444091
0.00439877
0.00431027
0.00418394
0.00402764
0.00384846
0.00365273
0.00344595
0.00323294
0.00301761
0.0028035
0.00259294
0.0023887
0.00219118
0.00200376
0.00182322
0.00165715
0.00149309
0.0013532
0.00119865
0.0010958
0.000929768
0.000894708
0.000661004
0.000780023
0.000330999
0.000836307
-0.000210016
0.0012858
-0.0342494
-0.0306978
-0.0273128
-0.024099
-0.0210601
-0.0181996
-0.0155199
-0.0130226
-0.0107085
-0.00857735
-0.00662792
-0.00485795
-0.00326413
-0.00184209
-0.000586438
0.000509238
0.00145226
0.00225081
0.0029138
0.00345076
0.00387171
0.00418699
0.00440713
0.00454266
0.00460398
0.00460119
0.00454398
0.0044415
0.00430226
0.00413406
0.00394396
0.00373823
0.00352232
0.003301
0.00307814
0.00285722
0.0026405
0.00243073
0.00222825
0.00203639
0.00185188
0.00168227
0.00151506
0.0013724
0.00121531
0.0011104
0.00094216
0.000905912
0.000669673
0.000789261
0.000335585
0.000846165
-0.000212125
0.00130247
-0.0334659
-0.0299404
-0.0265823
-0.023396
-0.0203854
-0.0175536
-0.014903
-0.012435
-0.0101502
-0.00804837
-0.00612808
-0.00438696
-0.00282156
-0.00142738
-0.000198908
0.000870357
0.00178784
0.0025618
0.00320121
0.00371567
0.00411524
0.00441029
0.00461135
0.00472896
0.0047735
0.00475508
0.00468334
0.00456741
0.00441574
0.00423611
0.00403552
0.00382019
0.00359552
0.00336624
0.00313616
0.0029087
0.0026861
0.00247103
0.00226379
0.00206767
0.00187936
0.00170636
0.00153613
0.00139082
0.0012313
0.0011244
0.000954054
0.00091666
0.000678002
0.000798123
0.000340004
0.000855632
-0.000214138
0.00131852
-0.0327053
-0.0292055
-0.0258739
-0.0227148
-0.0197319
-0.0169282
-0.014306
-0.0118666
-0.00961057
-0.00753737
-0.00564553
-0.00393252
-0.00239478
-0.0010277
0.000174353
0.00121798
0.00211068
0.00286081
0.0034774
0.0039701
0.00434901
0.00462452
0.00480717
0.00490751
0.00493592
0.00490246
0.00481676
0.0046879
0.00452432
0.00433373
0.00412308
0.00389856
0.00366552
0.00342862
0.00319164
0.00295793
0.00272969
0.00250956
0.00229778
0.00209758
0.00190564
0.00172941
0.00155629
0.00140844
0.00124661
0.00113781
0.000965442
0.000926944
0.000685984
0.000806602
0.000344249
0.000864699
-0.000216053
0.00133393
-0.0356086
-0.0319694
-0.0284949
-0.0251891
-0.0220566
-0.0191007
-0.0163245
-0.0137301
-0.0113187
-0.00909058
-0.00704525
-0.00518106
-0.00349535
-0.00198446
-0.000643649
0.000532811
0.00155162
0.00242037
0.00314748
0.00374205
0.00421377
0.00457277
0.00482947
0.00499444
0.00507819
0.0050911
0.00504322
0.00494414
0.00480292
0.00462793
0.00442686
0.00420661
0.00397332
0.00373228
0.00348811
0.00324454
0.00300487
0.00277127
0.0025463
0.00233019
0.00212612
0.00193072
0.0017514
0.00157553
0.00142525
0.00126122
0.0011506
0.000976316
0.000936757
0.000693612
0.000814694
0.000348315
0.000873359
-0.000217873
0.00134869
-0.0348751
-0.0312598
-0.0278099
-0.0245295
-0.0214228
-0.0184934
-0.0157439
-0.0131765
-0.0107922
-0.00859122
-0.0065729
-0.00473548
-0.0030762
-0.00159126
-0.000275826
0.000875937
0.00187082
0.0027165
0.00342144
0.00399483
0.00444639
0.00478629
0.00502496
0.00517296
0.00524083
0.00523892
0.00517725
0.0050654
0.00491237
0.0047265
0.00451545
0.00428605
0.0040444
0.00379575
0.00354467
0.00329483
0.00304951
0.0028108
0.00258124
0.00236102
0.00215326
0.00195457
0.00177232
0.00159383
0.00144125
0.00127512
0.00116277
0.000986667
0.000946094
0.000700879
0.000822392
0.000352198
0.000881606
-0.000219595
0.00136277
-0.0341702
-0.0305782
-0.0271523
-0.0238965
-0.020815
-0.0179111
-0.0151876
-0.0126462
-0.0102882
-0.00811343
-0.00612119
-0.0043096
-0.00267578
-0.00121583
7.51951e-05
0.00120322
0.00217512
0.00299865
0.00368235
0.00423545
0.00466772
0.00498934
0.00521077
0.00534258
0.00539529
0.00537925
0.00530446
0.00518044
0.00501618
0.00481998
0.00459943
0.00436135
0.00411177
0.00385591
0.00359827
0.00334249
0.00309181
0.00284826
0.00261436
0.00239024
0.00217899
0.00197718
0.00179215
0.00161119
0.00145641
0.00128829
0.00117431
0.000996488
0.000954948
0.000707779
0.000829693
0.000355893
0.000889432
-0.000221221
0.00137617
-0.0334958
-0.0299264
-0.0265236
-0.0232916
-0.0202344
-0.0173552
-0.0146567
-0.0121405
-0.00980767
-0.00765814
-0.00569097
-0.00390417
-0.00229479
-0.000858789
0.000408851
0.00151415
0.00246408
0.00326645
0.00392987
0.00446361
0.00487748
0.00518169
0.00538672
0.00550313
0.00554145
0.00551199
0.00542473
0.00528918
0.00511428
0.00490829
0.00467877
0.00443247
0.0041754
0.00391271
0.00364888
0.0033875
0.00313175
0.00288364
0.00264563
0.00241783
0.00220328
0.00199854
0.00181088
0.00162758
0.00147074
0.00130075
0.00118521
0.00100577
0.000963313
0.000714306
0.00083659
0.000359395
0.000896832
-0.000222751
0.00138887
-0.0328536
-0.0293059
-0.0259255
-0.0227163
-0.0196824
-0.016827
-0.0141524
-0.0116604
-0.00935169
-0.00722629
-0.00528307
-0.00351997
-0.0019339
-0.000520756
0.000724596
0.00180826
0.00273727
0.00351951
0.00416366
0.00467901
0.00507543
0.00536314
0.00555262
0.00565446
0.00567915
0.00563701
0.00553799
0.00539155
0.00520661
0.00499139
0.0047534
0.00449937
0.00423524
0.00396613
0.00369648
0.00342982
0.0031693
0.00291691
0.00267504
0.00244378
0.00222614
0.00201863
0.0018285
0.00164301
0.00148421
0.00131247
0.00119547
0.00101451
0.000971183
0.000720455
0.000843079
0.0003627
0.0009038
-0.000224185
0.00140085
-0.0322452
-0.0287184
-0.0253593
-0.022172
-0.0191604
-0.0163276
-0.0136759
-0.0112068
-0.0089212
-0.00681874
-0.00489831
-0.00315772
-0.00159379
-0.000202319
0.0010219
0.00208507
0.00299427
0.00375748
0.00438341
0.0048814
0.00526134
0.00553348
0.00570831
0.00579642
0.00580828
0.00575421
0.00564412
0.00548746
0.00529309
0.00506921
0.00482329
0.004562
0.00429126
0.00401614
0.00374103
0.00346944
0.00320446
0.00294805
0.00270257
0.00246808
0.00224753
0.00203744
0.001845
0.00165745
0.00149682
0.00132345
0.00120508
0.0010227
0.000978553
0.000726219
0.000849156
0.000365804
0.00091033
-0.000225522
0.0014121
-0.0316725
-0.0281654
-0.0248266
-0.0216601
-0.0186697
-0.0158583
-0.0132282
-0.010781
-0.00851712
-0.00643636
-0.00453745
-0.00281811
-0.00127507
9.5955e-05
0.00130027
0.00234413
0.0032347
0.00398001
0.00458881
0.0050705
0.00543497
0.00569251
0.00585362
0.00592886
0.00592872
0.00586348
0.00574306
0.00557683
0.00537367
0.0051417
0.00488838
0.00462033
0.00434342
0.0040627
0.00378251
0.00350632
0.00323719
0.00297704
0.00272821
0.0024907
0.00226746
0.00205496
0.00186037
0.00167091
0.0015086
0.00133368
0.00121403
0.00103032
0.000985418
0.000731593
0.000854817
0.000368703
0.000916416
-0.000226763
0.00142261
-0.0311368
-0.0276485
-0.0243288
-0.0211819
-0.0182114
-0.0154202
-0.0128106
-0.0103837
-0.00814035
-0.00607997
-0.00420124
-0.00250183
-0.000978364
0.000373526
0.00155921
0.00258502
0.00345818
0.00418677
0.00477959
0.00524606
0.00559612
0.00584006
0.00598838
0.00605166
0.00604035
0.00596474
0.00583471
0.00565961
0.00544828
0.00520882
0.00494863
0.00467431
0.0043917
0.00410579
0.00382089
0.00354045
0.00326748
0.00300388
0.00275193
0.00251164
0.0022859
0.00207117
0.0018746
0.00168337
0.00151954
0.00134316
0.00122232
0.00103739
0.000991774
0.000736573
0.000860058
0.000371394
0.000922054
-0.000227908
0.00143236
-0.0306399
-0.027169
-0.0238673
-0.0207387
-0.0177869
-0.0150145
-0.0124238
-0.0100161
-0.00779175
-0.00575033
-0.00389039
-0.00220951
-0.00070423
0.000629884
0.00179827
0.00280733
0.00366435
0.00437745
0.00495546
0.00540786
0.00574458
0.00597595
0.00611246
0.00616469
0.00614307
0.00605789
0.00591901
0.00573573
0.00551688
0.00527051
0.00500401
0.00472392
0.00443606
0.00414538
0.00385616
0.00357181
0.00329531
0.00302853
0.00277372
0.00253087
0.00230284
0.00208607
0.00188767
0.00169483
0.00152954
0.00135187
0.00122993
0.00104388
0.000997615
0.000741154
0.000864875
0.000373873
0.000927239
-0.000228957
0.00144133
-0.0301832
-0.0267285
-0.0234434
-0.0203317
-0.0173971
-0.0146421
-0.012069
-0.00967886
-0.00747211
-0.00544818
-0.00360556
-0.00194174
-0.000453209
0.000864549
0.00201704
0.0030107
0.00385289
0.00455176
0.00511619
0.00555567
0.00588017
0.00610002
0.00622571
0.00626782
0.00623678
0.00614285
0.00599587
0.00580513
0.0055794
0.00532674
0.00505447
0.00476913
0.00447648
0.00418145
0.00388829
0.00360038
0.00332067
0.00305099
0.00279358
0.0025484
0.00231828
0.00209964
0.00189958
0.00170526
0.0015387
0.00135982
0.00123687
0.00104981
0.00100294
0.000745333
0.000869265
0.000376137
0.000931967
-0.000229911
0.00144953
-0.0297679
-0.0263281
-0.0230582
-0.019962
-0.0170431
-0.0143041
-0.0117469
-0.00937289
-0.00718218
-0.0051742
-0.00334736
-0.00169908
-0.000225797
0.00107708
0.0022151
0.00319477
0.00402348
0.00470943
0.00526153
0.0056893
0.00600272
0.00621212
0.00632801
0.00636096
0.00632139
0.00621954
0.00606524
0.00586774
0.00563581
0.00537746
0.00509999
0.0048099
0.00451293
0.00421398
0.00391727
0.00362614
0.00334353
0.00307124
0.00281149
0.00256421
0.0023322
0.00211189
0.00191032
0.00171468
0.00154694
0.00136698
0.00124314
0.00105515
0.00100774
0.000749104
0.000873224
0.000378182
0.000936233
-0.000230768
0.00145694
-0.0293955
-0.025969
-0.0227128
-0.0196306
-0.0167259
-0.0140012
-0.0114585
-0.00909893
-0.00692265
-0.00492901
-0.00311635
-0.00148205
-2.24513e-05
0.00126706
0.0023921
0.00335922
0.00417585
0.00485023
0.00539128
0.00580856
0.00611205
0.00631211
0.00641924
0.00644401
0.0063968
0.00628789
0.00612706
0.00592353
0.00568606
0.00542264
0.00514053
0.00484621
0.00454539
0.00424294
0.00394307
0.00364908
0.00336388
0.00308928
0.00282744
0.00257828
0.0023446
0.00212279
0.00191989
0.00172306
0.00155426
0.00137335
0.00124871
0.00105991
0.00101202
0.000752465
0.000876751
0.000380008
0.000940035
-0.00023153
0.00146355
-0.029067
-0.0256524
-0.0224083
-0.0193385
-0.0164463
-0.0137344
-0.0112045
-0.00885766
-0.00669415
-0.00471318
-0.00291306
-0.00129109
0.000156414
0.00143413
0.00254772
0.00350377
0.00430975
0.00497392
0.00550524
0.00591328
0.00620804
0.00639988
0.0064993
0.00651687
0.00646296
0.00634784
0.00618127
0.00597245
0.00573012
0.00546224
0.00517606
0.00487803
0.00457383
0.00426833
0.00396568
0.00366918
0.00338172
0.00310508
0.00284141
0.00259062
0.00235546
0.00213235
0.00192828
0.0017304
0.00156066
0.00137894
0.0012536
0.00106408
0.00101577
0.000755413
0.000879843
0.00038161
0.000943368
-0.000232197
0.00146935
-0.0287834
-0.0253791
-0.0221456
-0.0190865
-0.0162052
-0.0135042
-0.0109854
-0.00864968
-0.00649722
-0.00452722
-0.00273793
-0.00112663
0.000310432
0.00157796
0.00268166
0.00362816
0.00442495
0.00508031
0.00560325
0.00600332
0.00629056
0.00647531
0.00656809
0.00657947
0.00651979
0.00639933
0.00622783
0.00601445
0.00576795
0.00549624
0.00520656
0.00490534
0.00459825
0.00429011
0.00398508
0.00368643
0.00339704
0.00311864
0.0028534
0.0026012
0.00236479
0.00214055
0.00193547
0.00173671
0.00156617
0.00138374
0.00125779
0.00106767
0.00101898
0.000757945
0.000882496
0.000382987
0.00094623
-0.000232768
0.00147433
-0.0285456
-0.02515
-0.0219254
-0.0188754
-0.0160032
-0.0133115
-0.0108019
-0.00847553
-0.00633235
-0.00437155
-0.00259137
-0.00098901
0.000439283
0.00169827
0.00279368
0.00373217
0.00452125
0.00516924
0.00568515
0.00607855
0.00635949
0.00653832
0.00662555
0.00663174
0.00656724
0.00644231
0.00626669
0.00604951
0.00579951
0.00552461
0.00523201
0.00492814
0.00461862
0.00430829
0.00400127
0.00370083
0.00340981
0.00312996
0.00286341
0.00261004
0.00237257
0.00214739
0.00194148
0.00174197
0.00157076
0.00138774
0.0012613
0.00107066
0.00102167
0.000760059
0.000884711
0.000384138
0.000948619
-0.000233244
0.00147849
-0.0283545
-0.0249659
-0.0217484
-0.0187057
-0.0158409
-0.0131566
-0.0106546
-0.00833565
-0.00619994
-0.00424656
-0.0024737
-0.000878543
0.000542698
0.00179481
0.00288356
0.0038156
0.00459849
0.00524056
0.00575082
0.00613887
0.00641475
0.00658882
0.00667159
0.00667363
0.00660525
0.00647674
0.00629782
0.00607759
0.0058248
0.00554733
0.0052524
0.00494639
0.00463494
0.00432285
0.00401424
0.00371235
0.00342004
0.00313902
0.00287142
0.00261711
0.0023788
0.00215288
0.00194629
0.00174618
0.00157444
0.00139094
0.0012641
0.00107305
0.00102382
0.000761752
0.000886484
0.00038506
0.000950533
-0.000233625
0.00148183
-0.0282106
-0.0248272
-0.0216152
-0.0185779
-0.0157187
-0.0130401
-0.0105437
-0.00823041
-0.00610033
-0.00415254
-0.00238519
-0.000795465
0.000620463
0.0018674
0.00295112
0.00387832
0.00465655
0.00529416
0.00580017
0.00618419
0.00645627
0.00662676
0.00670617
0.00670508
0.0066338
0.0065026
0.00632119
0.00609867
0.00584378
0.00556439
0.0052677
0.00496009
0.00464718
0.00433377
0.00402397
0.003721
0.00342771
0.00314582
0.00287744
0.00262242
0.00238348
0.00215699
0.0019499
0.00174934
0.0015772
0.00139335
0.0012662
0.00107485
0.00102543
0.000763024
0.000887816
0.000385753
0.00095197
-0.00023391
0.00148434
-0.0281143
-0.0247345
-0.0215261
-0.0184925
-0.0156371
-0.0129622
-0.0104695
-0.00816007
-0.00603376
-0.00408971
-0.00232606
-0.000739964
0.00067241
0.00191589
0.00299625
0.0039202
0.00469532
0.00532994
0.00583312
0.00621445
0.00648398
0.00665208
0.00672926
0.00672607
0.00665285
0.00651985
0.00633678
0.00611273
0.00585644
0.00557577
0.0052779
0.00496923
0.00465535
0.00434106
0.00403046
0.00372677
0.00343284
0.00315036
0.00288145
0.00262596
0.0023866
0.00215973
0.00195231
0.00175145
0.00157905
0.00139495
0.00126761
0.00107605
0.00102651
0.000763872
0.000888704
0.000386215
0.000952928
-0.0002341
0.00148601
-0.0280661
-0.0246881
-0.0214815
-0.0184497
-0.0155962
-0.0129232
-0.0104324
-0.00812485