/*--------------------------------*- C++ -*----------------------------------*\
  =========                 |
  \\      /  F ield         | OpenFOAM: The Open Source CFD Toolbox
   \\    /   O peration     | Website:  https://openfoam.org
    \\  /    A nd           | Version:  7
     \\/     M anipulation  |
\*---------------------------------------------------------------------------*/
FoamFile
{
    version     2.0;
    format      ascii;
    class       surfaceScalarField;
    location    "15";
    object      phi;
}
// * * * * * * * * * * * * * * * * * * * * * * * * * * * * * * * * * * * * * //

dimensions      [0 3 -1 0 0 0 0];

internalField   nonuniform List<scalar> 
5135
(
0.0039071
-0.000130712
0.00404071
-0.000133613
0.00417717
-0.000136453
0.00431639
-0.000139227
-0.000141934
0.00445833
0.00386155
-0.00025989
0.00399359
-0.000265659
0.00412845
-0.000271306
0.00426604
-0.000276823
-0.000282206
0.00440631
0.00381657
-0.000387555
0.00394707
-0.000396159
0.00408034
-0.00040458
0.00421633
-0.000412809
-0.000420838
0.00435496
0.00377216
-0.000513726
0.00390113
-0.000525133
0.00403285
-0.000536297
0.00416724
-0.000547208
-0.000557852
0.00430426
0.0037283
-0.000638425
0.00385577
-0.000652601
0.00398595
-0.000666478
0.00411878
-0.000680039
-0.000693269
0.0042542
0.00368501
-0.000761669
0.00381099
-0.000778584
0.00393965
-0.000795142
0.00407094
-0.000811323
-0.000827111
0.00420478
0.00364225
-0.000883478
0.00376677
-0.0009031
0.00389394
-0.000922309
0.00402369
-0.000941081
-0.000959398
0.00415598
0.00360004
-0.00100387
0.0037231
-0.00102617
0.0038488
-0.001048
0.00397705
-0.00106933
-0.00109015
0.0041078
0.00355835
-0.00112287
0.00367999
-0.00114781
0.00380422
-0.00117223
0.00393098
-0.00119609
-0.00121938
0.00406022
0.00351718
-0.00124048
0.00363741
-0.00126804
0.0037602
-0.00129502
0.0038855
-0.00132139
-0.00134712
0.00401323
0.00347652
-0.00135674
0.00359536
-0.00138688
0.00371673
-0.00141639
0.00384058
-0.00144523
-0.00147338
0.00396684
0.00343637
-0.00147164
0.00355384
-0.00150435
0.0036738
-0.00153636
0.00379621
-0.00156764
-0.00159818
0.00392101
0.00339672
-0.00158523
0.00351282
-0.00162045
0.0036314
-0.00165494
0.0037524
-0.00168864
-0.00172154
0.00387575
0.00335755
-0.0016975
0.00347232
-0.00173522
0.00358953
-0.00177215
0.00370912
-0.00180823
-0.00184346
0.00383105
0.00331886
-0.00180847
0.0034323
-0.00184866
0.00354816
-0.00188801
0.00366637
-0.00192645
-0.00196398
0.00378689
0.00328064
-0.00191817
0.00339278
-0.0019608
0.0035073
-0.00200253
0.00362414
-0.00204329
-0.00208311
0.00374327
0.00324289
-0.0020266
0.00335373
-0.00207164
0.00346693
-0.00211572
0.00358242
-0.00215879
-0.00220086
0.00370017
0.00320559
-0.00213378
0.00331515
-0.0021812
0.00342704
-0.00222761
0.00354121
-0.00227295
-0.00231724
0.00365759
0.00316874
-0.00223973
0.00327704
-0.0022895
0.00338764
-0.00233821
0.00350048
-0.00238579
-0.00243227
0.00361551
0.00313233
-0.00234446
0.00323938
-0.00239655
0.0033487
-0.00244753
0.00346023
-0.00249733
-0.00254597
0.00357393
0.00309636
-0.00244798
0.00320217
-0.00250236
0.00331022
-0.00255559
0.00342047
-0.00260757
-0.00265835
0.00353284
0.0030608
-0.0025503
0.0031654
-0.00260695
0.0032722
-0.00266239
0.00338116
-0.00271653
-0.00276941
0.00349223
0.00302567
-0.00265145
0.00312905
-0.00271034
0.00323462
-0.00276796
0.00334231
-0.00282422
-0.00287918
0.00345208
0.00299095
-0.00275143
0.00309314
-0.00281252
0.00319748
-0.00287229
0.00330392
-0.00293066
-0.00298767
0.0034124
0.00295664
-0.00285025
0.00305764
-0.00291352
0.00316076
-0.00297542
0.00326596
-0.00303586
-0.00309488
0.00337317
0.00292272
-0.00294793
0.00302255
-0.00301335
0.00312447
-0.00307734
0.00322844
-0.00313982
-0.00320082
0.00333438
0.00288919
-0.00304448
0.00298786
-0.00311202
0.00308859
-0.00317807
0.00319134
-0.00324257
-0.00330552
0.00329603
0.00285605
-0.0031399
0.00295357
-0.00320954
0.00305312
-0.00327763
0.00315466
-0.0033441
-0.00340897
0.00325811
0.00282329
-0.00323422
0.00291967
-0.00330592
0.00301806
-0.00337601
0.00311839
-0.00344444
-0.00351118
0.00322061
0.00279091
-0.00332744
0.00288616
-0.00340117
0.00298338
-0.00347323
0.00308253
-0.00354358
-0.00361217
0.00318352
0.00275889
-0.00341957
0.00285302
-0.00349531
0.00294909
-0.0035693
0.00304706
-0.00364155
-0.00371195
0.00314684
0.00272723
-0.00351062
0.00282026
-0.00358833
0.00291519
-0.00366423
0.00301198
-0.00373835
-0.00381052
0.00311055
0.00269593
-0.00360059
0.00278786
-0.00368025
0.00288166
-0.00375803
0.00297729
-0.00383398
-0.00390789
0.00307466
0.00266499
-0.00368951
0.00275582
-0.00377109
0.00284849
-0.0038507
0.00294298
-0.00392846
-0.00400406
0.00303915
0.00263438
-0.00377738
0.00272414
-0.00386084
0.0028157
-0.00394226
0.00290903
-0.0040218
-0.00409905
0.00300402
0.00260412
-0.00386421
0.0026928
-0.00394952
0.00278325
-0.00403272
0.00287545
-0.004114
-0.00419285
0.00296926
0.00257419
-0.00395001
0.00266181
-0.00403714
0.00275116
-0.00412207
0.00284223
-0.00420507
-0.00428549
0.00293487
0.00245983
-0.00394392
0.0025446
-0.00403477
0.00263116
-0.00412369
0.00271942
-0.00421034
0.00280937
-0.00429501
-0.00437695
0.00290083
0.00243158
-0.00402586
0.00251533
-0.00411853
0.00260084
-0.0042092
0.00268802
-0.00429752
0.00277685
-0.00438384
-0.00446726
0.00286715
0.00240364
-0.00410683
0.00248638
-0.00420127
0.00257085
-0.00429367
0.00265695
-0.00438363
0.00274467
-0.00447156
-0.0045564
0.00283382
0.00237601
-0.00418683
0.00245775
-0.00428302
0.00254118
-0.0043771
0.00262622
-0.00446866
0.00271283
-0.00455817
-0.0046444
0.00280083
0.00234868
-0.00426587
0.00242943
-0.00436377
0.00251183
-0.0044595
0.00259581
-0.00455264
0.00268132
-0.00464369
-0.00473124
0.00276817
0.00232166
-0.00434396
0.00240142
-0.00444353
0.0024828
-0.00454088
0.00256572
-0.00463556
0.00265014
-0.0047281
-0.00481695
0.00273584
0.00229493
-0.00442109
0.00237371
-0.00452231
0.00245408
-0.00462124
0.00253595
-0.00471743
0.00261927
-0.00481142
-0.00490152
0.00270384
0.0022685
-0.0044973
0.00234631
-0.00460013
0.00242566
-0.00470059
0.00250649
-0.00479826
0.00258872
-0.00489366
-0.00498496
0.00267216
0.00224235
-0.00457257
0.0023192
-0.00467697
0.00239754
-0.00477894
0.00247734
-0.00487806
0.00255848
-0.00497481
-0.00506728
0.0026408
0.00221649
-0.00464691
0.00229237
-0.00475286
0.00236972
-0.00485629
0.00244848
-0.00495681
0.00252855
-0.00505487
-0.00514848
0.00260975
0.00219091
-0.00472034
0.00226584
-0.00482779
0.0023422
-0.00493264
0.00241993
-0.00503455
0.00249891
-0.00513386
-0.00522857
0.00257901
0.00216561
-0.00479285
0.00223959
-0.00490177
0.00231496
-0.00500801
0.00239167
-0.00511125
0.00246957
-0.00521176
0.00214058
-0.00486447
0.00221362
-0.00497481
0.00228801
-0.0050824
0.00236369
-0.00518694
-0.0052886
0.00211583
-0.00493518
0.00218793
-0.00504692
0.00226134
-0.00515581
0.002336
-0.0052616
0.00209134
-0.005005
0.00216251
-0.00511809
0.00223494
-0.00522824
-0.00533525
0.00206711
-0.00507394
0.00213736
-0.00518833
0.00220882
-0.0052997
0.00204315
-0.005142
0.00211247
-0.00525766
-0.0053702
0.00201945
-0.00520918
0.00208785
-0.00532606
-0.00543973
0.001996
-0.0052755
0.00206349
-0.00539356
0.0019728
-0.00534095
-0.00546015
0.00194985
-0.00540555
-0.00546929
0.00445937
-1.04003e-06
0.00446025
-8.77391e-07
0.00446096
-7.13111e-07
0.00446151
-5.4696e-07
0.00446189
-3.79641e-07
0.0044621
-2.11481e-07
0.00446214
-4.27381e-08
0.00446201
1.2632e-07
0.00446172
2.95436e-07
0.00446125
4.6435e-07
0.00446062
6.328e-07
0.00445982
8.00517e-07
0.00445885
9.6723e-07
0.00445772
1.13266e-06
0.00445642
1.29654e-06
0.00445497
1.4586e-06
0.00445335
1.61857e-06
0.00445157
1.7762e-06
0.00444964
1.93125e-06
0.00444756
2.08349e-06
0.00444532
2.23271e-06
0.00444294
2.37873e-06
0.00444042
2.5214e-06
0.00443776
2.66056e-06
0.00443497
2.79612e-06
0.00443204
2.92798e-06
0.00442898
3.05611e-06
0.0044258
3.18048e-06
0.0044225
3.3011e-06
0.00441908
3.41802e-06
0.00441555
3.53132e-06
0.00441191
3.64108e-06
0.00440816
3.74746e-06
0.00440431
3.85061e-06
0.00440036
3.95073e-06
0.00439631
4.04804e-06
0.00439217
4.14277e-06
0.00438794
4.23522e-06
0.00438361
4.32566e-06
0.0043792
4.41441e-06
0.00437469
4.50183e-06
0.00437011
4.58826e-06
0.00436543
4.67408e-06
0.00436067
4.75971e-06
0.00435583
4.84556e-06
0.00435089
4.93206e-06
0.00434587
5.01969e-06
0.00434077
5.10891e-06
5.20024e-06
0.00440734
-2.06798e-06
0.00440821
-1.74341e-06
0.00440891
-1.41614e-06
0.00440945
-1.08542e-06
0.00440982
-7.52476e-07
0.00441003
-4.17914e-07
0.00441007
-8.22272e-08
0.00440994
2.5407e-07
0.00440964
5.90472e-07
0.00440918
9.26469e-07
0.00440855
1.26154e-06
0.00440776
1.59516e-06
0.0044068
1.92677e-06
0.00440568
2.25584e-06
0.00440439
2.58183e-06
0.00440295
2.90419e-06
0.00440134
3.2224e-06
0.00439958
3.53595e-06
0.00439767
3.84436e-06
0.00439561
4.14719e-06
0.00439339
4.44401e-06
0.00439104
4.73447e-06
0.00438854
5.01823e-06
0.00438591
5.29503e-06
0.00438314
5.56465e-06
0.00438024
5.82692e-06
0.00437721
6.08175e-06
0.00437406
6.3291e-06
0.0043708
6.56899e-06
0.00436741
6.80151e-06
0.00436392
7.02681e-06
0.00436031
7.24509e-06
0.0043566
7.45662e-06
0.00435279
7.66174e-06
0.00434888
7.86081e-06
0.00434488
8.05429e-06
0.00434078
8.24265e-06
0.00433659
8.42645e-06
0.00433231
8.60626e-06
0.00432794
8.78272e-06
0.00432348
8.9565e-06
0.00431894
9.12831e-06
0.00431432
9.29893e-06
0.00430961
9.46914e-06
0.00430481
9.63979e-06
0.00429993
9.81174e-06
0.00429497
9.98592e-06
0.00428991
1.01633e-05
1.03448e-05
0.00435597
-3.08239e-06
0.00435683
-2.59656e-06
0.00435752
-2.10732e-06
0.00435805
-1.61335e-06
0.00435841
-1.11626e-06
0.00435861
-6.1687e-07
0.00435864
-1.15865e-07
0.00435851
3.86012e-07
0.00435821
8.88026e-07
0.00435775
1.38943e-06
0.00435712
1.88944e-06
0.00435633
2.38728e-06
0.00435537
2.88215e-06
0.00435426
3.37322e-06
0.00435298
3.85968e-06
0.00435154
4.34074e-06
0.00434995
4.8156e-06
0.0043482
5.28351e-06
0.0043463
5.74375e-06
0.00434425
6.19565e-06
0.00434206
6.63858e-06
0.00433972
7.072e-06
0.00433724
7.49542e-06
0.00433463
7.90843e-06
0.00433189
8.31071e-06
0.00432901
8.70203e-06
0.00432601
9.08222e-06
0.00432289
9.45123e-06
0.00431965
9.8091e-06
0.00431629
1.0156e-05
0.00431283
1.0492e-05
0.00430926
1.08176e-05
0.00430558
1.11331e-05
0.0043018
1.1439e-05
0.00429793
1.17359e-05
0.00429396
1.20244e-05
0.00428989
1.23053e-05
0.00428574
1.25794e-05
0.0042815
1.28475e-05
0.00427717
1.31106e-05
0.00427276
1.33697e-05
0.00426826
1.36258e-05
0.00426368
1.38802e-05
0.00425902
1.41339e-05
0.00425427
1.43883e-05
0.00424943
1.46446e-05
0.00424452
1.49042e-05
0.00423951
1.51685e-05
1.54391e-05
0.00430526
-4.08135e-06
0.0043061
-3.43499e-06
0.00430677
-2.78474e-06
0.00430729
-2.12868e-06
0.00430764
-1.46878e-06
0.00430783
-8.05984e-07
0.00430786
-1.41148e-07
0.00430772
5.24789e-07
0.00430741
1.19088e-06
0.00430695
1.85614e-06
0.00430632
2.51956e-06
0.00430552
3.1801e-06
0.00430457
3.8367e-06
0.00430345
4.48827e-06
0.00430218
5.13373e-06
0.00430075
5.77202e-06
0.00429916
6.4021e-06
0.00429742
7.02294e-06
0.00429553
7.63359e-06
0.0042935
8.23317e-06
0.00429131
8.82084e-06
0.00428899
9.39586e-06
0.00428653
9.9576e-06
0.00428393
1.05055e-05
0.0042812
1.10391e-05
0.00427835
1.15582e-05
0.00427537
1.20625e-05
0.00427227
1.25519e-05
0.00426905
1.30265e-05
0.00426572
1.34865e-05
0.00426228
1.39321e-05
0.00425873
1.43638e-05
0.00425508
1.47821e-05
0.00425133
1.51877e-05
0.00424749
1.55813e-05
0.00424355
1.59637e-05
0.00423952
1.63361e-05
0.0042354
1.66993e-05
0.00423119
1.70546e-05
0.0042269
1.74033e-05
0.00422252
1.77466e-05
0.00421806
1.8086e-05
0.00421352
1.8423e-05
0.00420889
1.87592e-05
0.00420418
1.90961e-05
0.00419939
1.94357e-05
0.00419452
1.97796e-05
0.00418956
2.01297e-05
2.04881e-05
0.00425518
-5.06261e-06
0.004256
-4.25659e-06
0.00425667
-3.4463e-06
0.00425717
-2.62928e-06
0.00425751
-1.8078e-06
0.00425768
-9.82931e-07
0.0042577
-1.5564e-07
0.00425755
6.72951e-07
0.00425724
1.5017e-06
0.00425676
2.3294e-06
0.00425613
3.15482e-06
0.00425533
3.97666e-06
0.00425438
4.79361e-06
0.00425326
5.60431e-06
0.00425199
6.40743e-06
0.00425056
7.20162e-06
0.00424897
7.98559e-06
0.00424724
8.75806e-06
0.00424535
9.51785e-06
0.00424332
1.02638e-05
0.00424115
1.0995e-05
0.00423883
1.17103e-05
0.00423638
1.24092e-05
0.0042338
1.30907e-05
0.00423108
1.37545e-05
0.00422824
1.44001e-05
0.00422528
1.50273e-05
0.00422219
1.56359e-05
0.00421899
1.62261e-05
0.00421568
1.6798e-05
0.00421226
1.7352e-05
0.00420874
1.78887e-05
0.00420511
1.84087e-05
0.00420138
1.89128e-05
0.00419756
1.94019e-05
0.00419365
1.98772e-05
0.00418965
2.03399e-05
0.00418555
2.07912e-05
0.00418138
2.12326e-05
0.00417711
2.16657e-05
0.00417277
2.20922e-05
0.00416834
2.25138e-05
0.00416383
2.29323e-05
0.00415924
2.33498e-05
0.00415457
2.37683e-05
0.00414981
2.41899e-05
0.00414498
2.46169e-05
0.00414006
2.50516e-05
2.54965e-05
0.00420574
-6.02378e-06
0.00420654
-5.05911e-06
0.00420719
-4.0898e-06
0.00420767
-3.11293e-06
0.00420799
-2.1311e-06
0.00420816
-1.1454e-06
0.00420816
-1.56953e-07
0.004208
8.32982e-07
0.00420767
1.82307e-06
0.00420719
2.81191e-06
0.00420655
3.79804e-06
0.00420575
4.7799e-06
0.00420478
5.75594e-06
0.00420366
6.72454e-06
0.00420239
7.68409e-06
0.00420096
8.63298e-06
0.00419937
9.56964e-06
0.00419764
1.04926e-05
0.00419575
1.14003e-05
0.00419373
1.22915e-05
0.00419156
1.3165e-05
0.00418925
1.40195e-05
0.0041868
1.48543e-05
0.00418422
1.56683e-05
0.00418152
1.64611e-05
0.00417869
1.72321e-05
0.00417573
1.7981e-05
0.00417266
1.87077e-05
0.00416947
1.94123e-05
0.00416618
2.0095e-05
0.00416277
2.07563e-05
0.00415927
2.13968e-05
0.00415566
2.20173e-05
0.00415195
2.26188e-05
0.00414815
2.32025e-05
0.00414426
2.37695e-05
0.00414028
2.43213e-05
0.00413621
2.48596e-05
0.00413205
2.53861e-05
0.00412782
2.59026e-05
0.0041235
2.64111e-05
0.0041191
2.69137e-05
0.00411462
2.74127e-05
0.00411006
2.79103e-05
0.00410542
2.84091e-05
0.0041007
2.89116e-05
0.00409589
2.94205e-05
0.004091
2.99386e-05
3.04687e-05
0.00415692
-6.96239e-06
0.0041577
-5.84022e-06
0.00415832
-4.71299e-06
0.00415879
-3.5774e-06
0.00415909
-2.43641e-06
0.00415924
-1.29112e-06
0.00415922
-1.42736e-07
0.00415905
1.00731e-06
0.00415872
2.15752e-06
0.00415822
3.3063e-06
0.00415757
4.45194e-06
0.00415675
5.59267e-06
0.00415578
6.72666e-06
0.00415466
7.85203e-06
0.00415337
8.96691e-06
0.00415194
1.00694e-05
0.00415035
1.11577e-05
0.00414861
1.223e-05
0.00414673
1.32846e-05
0.0041447
1.432e-05
0.00414253
1.53347e-05
0.00414022
1.63274e-05
0.00413778
1.72969e-05
0.0041352
1.82424e-05
0.0041325
1.9163e-05
0.00412968
2.00583e-05
0.00412673
2.09278e-05
0.00412367
2.17715e-05
0.00412049
2.25894e-05
0.0041172
2.33818e-05
0.00411381
2.41492e-05
0.00411031
2.48925e-05
0.00410672
2.56124e-05
0.00410303
2.63102e-05
0.00409924
2.69872e-05
0.00409537
2.76448e-05
0.0040914
2.82848e-05
0.00408735
2.89089e-05
0.00408322
2.95193e-05
0.00407901
3.01181e-05
0.00407471
3.07075e-05
0.00407033
3.129e-05
0.00406588
3.18683e-05
0.00406134
3.24449e-05
0.00405673
3.30229e-05
0.00405204
3.3605e-05
0.00404726
3.41946e-05
0.00404241
3.47947e-05
3.54087e-05
0.00410871
-7.87596e-06
0.00410947
-6.59757e-06
0.00411007
-5.31356e-06
0.00411051
-4.02046e-06
0.0041108
-2.7215e-06
0.00411092
-1.4178e-06
0.00411089
-1.10678e-07
0.0041107
1.19832e-06
0.00411035
2.50751e-06
0.00410984
3.81511e-06
0.00410917
5.11919e-06
0.00410835
6.41773e-06
0.00410737
7.70864e-06
0.00410623
8.98978e-06
0.00410494
1.0259e-05
0.00410349
1.15141e-05
0.0041019
1.2753e-05
0.00410015
1.39737e-05
0.00409826
1.51743e-05
0.00409623
1.63528e-05
0.00409406
1.75077e-05
0.00409175
1.86375e-05
0.0040893
1.97409e-05
0.00408673
2.08167e-05
0.00408403
2.18642e-05
0.0040812
2.28827e-05
0.00407826
2.38717e-05
0.0040752
2.48313e-05
0.00407203
2.57614e-05
0.00406875
2.66624e-05
0.00406536
2.75349e-05
0.00406187
2.83797e-05
0.00405829
2.9198e-05
0.00405461
2.9991e-05
0.00405084
3.07601e-05
0.00404697
3.15072e-05
0.00404302
3.22342e-05
0.00403899
3.29431e-05
0.00403487
3.36363e-05
0.00403067
3.43161e-05
0.0040264
3.49853e-05
0.00402204
3.56466e-05
0.0040176
3.6303e-05
0.00401309
3.69575e-05
0.0040085
3.76133e-05
0.00400383
3.82739e-05
0.00399908
3.89428e-05
0.00399426
3.96236e-05
4.03202e-05
0.0040611
-8.76204e-06
0.00406184
-7.3288e-06
0.00406241
-5.88925e-06
0.00406283
-4.43986e-06
0.00406309
-2.98415e-06
0.0040632
-1.52323e-06
0.00406315
-5.8502e-08
0.00406294
1.40834e-06
0.00406257
2.87545e-06
0.00406204
4.34085e-06
0.00406136
5.80238e-06
0.00406052
7.25779e-06
0.00405952
8.7047e-06
0.00405837
1.01407e-05
0.00405707
1.15634e-05
0.00405561
1.29702e-05
0.00405401
1.43589e-05
0.00405225
1.57271e-05
0.00405035
1.70727e-05
0.00404831
1.83935e-05
0.00404613
1.96877e-05
0.00404382
2.09537e-05
0.00404137
2.21898e-05
0.00403879
2.33951e-05
0.00403609
2.45684e-05
0.00403326
2.5709e-05
0.00403032
2.68165e-05
0.00402726
2.78909e-05
0.00402408
2.89321e-05
0.00402081
2.99406e-05
0.00401742
3.0917e-05
0.00401394
3.18623e-05
0.00401036
3.27778e-05
0.00400669
3.36648e-05
0.00400292
3.45251e-05
0.00399907
3.53605e-05
0.00399513
3.61733e-05
0.00399111
3.69658e-05
0.003987
3.77406e-05
0.00398282
3.85004e-05
0.00397856
3.92482e-05
0.00397422
3.99871e-05
0.0039698
4.07204e-05
0.0039653
4.14514e-05
0.00396073
4.21839e-05
0.00395609
4.29217e-05
0.00395136
4.36686e-05
0.00394656
4.44288e-05
4.52065e-05
0.00401409
-9.61826e-06
0.00401479
-8.03163e-06
0.00401534
-6.43783e-06
0.00401574
-4.83341e-06
0.00401597
-3.22217e-06
0.00401606
-1.6052e-06
0.00401598
1.60261e-08
0.00401575
1.63966e-06
0.00401536
3.26371e-06
0.00401482
4.88597e-06
0.00401412
6.50408e-06
0.00401326
8.11549e-06
0.00401224
9.71759e-06
0.00401108
1.13077e-05
0.00400976
1.2883e-05
0.00400829
1.44408e-05
0.00400667
1.59785e-05
0.0040049
1.74934e-05
0.00400299
1.89831e-05
0.00400094
2.04454e-05
0.00399875
2.1878e-05
0.00399642
2.32792e-05
0.00399397
2.46473e-05
0.00399138
2.59809e-05
0.00398867
2.7279e-05
0.00398584
2.85408e-05
0.00398289
2.97658e-05
0.00397983
3.09538e-05
0.00397665
3.2105e-05
0.00397337
3.32199e-05
0.00396999
3.42992e-05
0.00396651
3.53439e-05
0.00396293
3.63554e-05
0.00395926
3.73353e-05
0.0039555
3.82855e-05
0.00395165
3.92081e-05
0.00394772
4.01056e-05
0.00394371
4.09805e-05
0.00393961
4.18358e-05
0.00393544
4.26744e-05
0.00393119
4.34995e-05
0.00392686
4.43148e-05
0.00392246
4.51237e-05
0.00391798
4.59301e-05
0.00391342
4.6738e-05
0.00390879
4.75516e-05
0.00390409
4.83752e-05
0.0038993
4.92133e-05
5.00707e-05
0.00396766
-1.04423e-05
0.00396833
-8.70383e-06
0.00396885
-6.95713e-06
0.00396922
-5.19899e-06
0.00396943
-3.43345e-06
0.00396949
-1.66156e-06
0.00396939
1.15095e-07
0.00396913
1.89454e-06
0.00396872
3.67461e-06
0.00396815
5.4529e-06
0.00396743
7.22678e-06
0.00396655
8.99346e-06
0.00396552
1.075e-05
0.00396433
1.24935e-05
0.003963
1.42208e-05
0.00396151
1.59289e-05
0.00395987
1.76148e-05
0.00395809
1.92757e-05
0.00395616
2.09088e-05
0.0039541
2.25117e-05
0.00395189
2.40819e-05
0.00394956
2.56174e-05
0.00394709
2.71165e-05
0.00394449
2.85776e-05
0.00394177
2.99995e-05
0.00393893
3.13814e-05
0.00393597
3.27228e-05
0.0039329
3.40235e-05
0.00392972
3.52836e-05
0.00392644
3.65038e-05
0.00392305
3.76847e-05
0.00391957
3.88276e-05
0.00391599
3.9934e-05
0.00391232
4.10056e-05
0.00390856
4.20445e-05
0.00390472
4.30532e-05
0.00390079
4.40342e-05
0.00389678
4.49903e-05
0.00389269
4.59248e-05
0.00388852
4.68409e-05
0.00388428
4.77423e-05
0.00387996
4.86326e-05
0.00387557
4.9516e-05
0.0038711
5.03964e-05
0.00386656
5.12784e-05
0.00386195
5.21665e-05
0.00385726
5.30653e-05
0.00385249
5.398e-05
5.49156e-05
0.0039218
-1.12321e-05
0.00392244
-9.3433e-06
0.00392293
-7.44506e-06
0.00392327
-5.53452e-06
0.00392345
-3.61592e-06
0.00392348
-1.69022e-06
0.00392335
2.40845e-07
0.00392307
2.17519e-06
0.00392263
4.11045e-06
0.00392204
6.044e-06
0.0039213
7.97297e-06
0.0039204
9.89427e-06
0.00391934
1.18047e-05
0.00391813
1.37009e-05
0.00391678
1.55796e-05
0.00391527
1.74373e-05
0.00391361
1.92708e-05
0.00391181
2.1077e-05
0.00390987
2.28529e-05
0.00390778
2.45956e-05
0.00390556
2.63026e-05
0.00390321
2.79717e-05
0.00390072
2.96008e-05
0.00389811
3.11884e-05
0.00389538
3.27331e-05
0.00389253
3.42342e-05
0.00388956
3.56909e-05
0.00388648
3.71031e-05
0.00388329
3.8471e-05
0.00388
3.97952e-05
0.00387661
4.10767e-05
0.00387312
4.23166e-05
0.00386954
4.35166e-05
0.00386586
4.46788e-05
0.0038621
4.58053e-05
0.00385826
4.68987e-05
0.00385433
4.79619e-05
0.00385032
4.89981e-05
0.00384623
5.00105e-05
0.00384207
5.1003e-05
0.00383784
5.19792e-05
0.00383352
5.29434e-05
0.00382914
5.38999e-05
0.00382468
5.48531e-05
0.00382015
5.58078e-05
0.00381555
5.67689e-05
0.00381088
5.77417e-05
0.00380612
5.87314e-05
5.97437e-05
0.00387651
-1.19854e-05
0.00387711
-9.94802e-06
0.00387757
-7.89964e-06
0.00387787
-5.83803e-06
0.00387802
-3.76757e-06
0.00387802
-1.68916e-06
0.00387787
3.95364e-07
0.00387756
2.48376e-06
0.0038771
4.57347e-06
0.00387648
6.66164e-06
0.00387571
8.7451e-06
0.00387478
1.08205e-05
0.0038737
1.28842e-05
0.00387247
1.49327e-05
0.00387109
1.69622e-05
0.00386955
1.8969e-05
0.00386787
2.09496e-05
0.00386605
2.29005e-05
0.00386409
2.48184e-05
0.00386198
2.67002e-05
0.00385974
2.85432e-05
0.00385737
3.03449e-05
0.00385487
3.21032e-05
0.00385224
3.38163e-05
0.00384949
3.54829e-05
0.00384662
3.7102e-05
0.00384364
3.86729e-05
0.00384054
4.01955e-05
0.00383735
4.16701e-05
0.00383404
4.30972e-05
0.00383064
4.4478e-05
0.00382715
4.58137e-05
0.00382356
4.71062e-05
0.00381988
4.83576e-05
0.00381611
4.95704e-05
0.00381226
5.07473e-05
0.00380833
5.18915e-05
0.00380433
5.30064e-05
0.00380024
5.40956e-05
0.00379608
5.51631e-05
0.00379185
5.62129e-05
0.00378754
5.72496e-05
0.00378316
5.82779e-05
0.00377871
5.93024e-05
0.00377419
6.03285e-05
0.0037696
6.13614e-05
0.00376493
6.24066e-05
0.0037602
6.34699e-05
6.45573e-05
0.00383177
-1.27004e-05
0.00383233
-1.05161e-05
0.00383275
-8.31899e-06
0.00383302
-6.10764e-06
0.00383314
-3.8865e-06
0.00383311
-1.65641e-06
0.00383292
5.80691e-07
0.00383259
2.82238e-06
0.00383209
5.0659e-06
0.00383145
7.30812e-06
0.00383065
9.5456e-06
0.00382969
1.17746e-05
0.00382858
1.39913e-05
0.00382733
1.61916e-05
0.00382592
1.83715e-05
0.00382436
2.05269e-05
0.00382265
2.2654e-05
0.00382081
2.4749e-05
0.00381882
2.68082e-05
0.00381669
2.88284e-05
0.00381442
3.08066e-05
0.00381203
3.27401e-05
0.00380951
3.46267e-05
0.00380686
3.64644e-05
0.00380409
3.82518e-05
0.0038012
3.99878e-05
0.0037982
4.16718e-05
0.0037951
4.33037e-05
0.00379188
4.48837e-05
0.00378857
4.64125e-05
0.00378515
4.78913e-05
0.00378165
4.93215e-05
0.00377805
5.07052e-05
0.00377436
5.20446e-05
0.00377059
5.33424e-05
0.00376673
5.46015e-05
0.0037628
5.58254e-05
0.00375879
5.70177e-05
0.0037547
5.81823e-05
0.00375054
5.93234e-05
0.00374631
6.04456e-05
0.003742
6.15535e-05
0.00373763
6.26521e-05
0.00373319
6.37467e-05
0.00372867
6.48427e-05
0.00372409
6.59458e-05
0.00371943
6.7062e-05
0.0037147
6.81973e-05
6.93583e-05
0.00378757
-1.33754e-05
0.0037881
-1.10457e-05
0.00378848
-8.70132e-06
0.00378871
-6.34155e-06
0.0037888
-3.97087e-06
0.00378873
-1.59005e-06
0.00378851
7.98811e-07
0.00378814
3.19314e-06
0.00378762
5.58993e-06
0.00378694
7.98578e-06
0.00378611
1.03769e-05
0.00378513
1.27592e-05
0.00378399
1.51284e-05
0.0037827
1.74802e-05
0.00378126
1.98102e-05
0.00377967
2.21138e-05
0.00377794
2.43869e-05
0.00377606
2.66254e-05
0.00377405
2.88253e-05
0.00377189
3.09832e-05
0.0037696
3.30958e-05
0.00376718
3.51603e-05
0.00376464
3.71741e-05
0.00376197
3.91354e-05
0.00375917
4.10424e-05
0.00375627
4.28943e-05
0.00375325
4.46902e-05
0.00375012
4.64301e-05
0.00374689
4.81143e-05
0.00374356
4.97435e-05
0.00374013
5.13191e-05
0.00373661
5.28425e-05
0.003733
5.4316e-05
0.0037293
5.57421e-05
0.00372552
5.71235e-05
0.00372166
5.84635e-05
0.00371772
5.97658e-05
0.0037137
6.10341e-05
0.00370961
6.22727e-05
0.00370545
6.34862e-05
0.00370122
6.46792e-05
0.00369691
6.58569e-05
0.00369254
6.70246e-05
0.0036881
6.81877e-05
0.00368359
6.93522e-05
0.00367901
7.05241e-05
0.00367437
7.17097e-05
0.00366965
7.29156e-05
7.41485e-05
0.0037439
-1.40085e-05
0.00374439
-1.15353e-05
0.00374474
-9.04499e-06
0.00374493
-6.53807e-06
0.00374498
-4.01892e-06
0.00374488
-1.48826e-06
0.00374463
1.05167e-06
0.00374422
3.59809e-06
0.00374366
6.14774e-06
0.00374295
8.69689e-06
0.00374209
1.12414e-05
0.00374107
1.37767e-05
0.0037399
1.62983e-05
0.00373858
1.88014e-05
0.00373711
2.1281e-05
0.00373549
2.37324e-05
0.00373373
2.6151e-05
0.00373182
2.85325e-05
0.00372977
3.08725e-05
0.00372759
3.31673e-05
0.00372527
3.54135e-05
0.00372282
3.7608e-05
0.00372025
3.97481e-05
0.00371755
4.18319e-05
0.00371474
4.38575e-05
0.00371181
4.5824e-05
0.00370877
4.77306e-05
0.00370562
4.95773e-05
0.00370237
5.13643e-05
0.00369902
5.30926e-05
0.00369558
5.47636e-05
0.00369204
5.63789e-05
0.00368841
5.79408e-05
0.0036847
5.94521e-05
0.00368091
6.09158e-05
0.00367704
6.23353e-05
0.00367309
6.37145e-05
0.00366907
6.50575e-05
0.00366497
6.63687e-05
0.0036608
6.76531e-05
0.00365657
6.89156e-05
0.00365226
7.01617e-05
0.00364789
7.13969e-05
0.00364345
7.26272e-05
0.00363895
7.38588e-05
0.00363437
7.50979e-05
0.00362973
7.63514e-05
0.00362502
7.76262e-05
7.89294e-05
0.00370076
-1.45984e-05
0.00370121
-1.19833e-05
0.00370151
-9.34843e-06
0.00370167
-6.69559e-06
0.00370168
-4.02897e-06
0.00370154
-1.34925e-06
0.00370125
1.34116e-06
0.00370081
4.03926e-06
0.00370022
6.74149e-06
0.00369947
9.44374e-06
0.00369857
1.21415e-05
0.00369752
1.48298e-05
0.00369631
1.75036e-05
0.00369496
2.01576e-05
0.00369345
2.27866e-05
0.0036918
2.53855e-05
0.00369
2.79492e-05
0.00368806
3.0473e-05
0.00368598
3.29525e-05
0.00368376
3.53835e-05
0.00368141
3.77624e-05
0.00367894
4.00859e-05
0.00367633
4.23513e-05
0.00367361
4.45564e-05
0.00367077
4.66994e-05
0.00366781
4.87793e-05
0.00366475
5.07953e-05
0.00366158
5.27474e-05
0.0036583
5.46359e-05
0.00365493
5.64619e-05
0.00365147
5.82268e-05
0.00364792
5.99325e-05
0.00364428
6.15815e-05
0.00364055
6.31766e-05
0.00363675
6.47211e-05
0.00363286
6.62186e-05
0.0036289
6.76733e-05
0.00362487
6.90895e-05
0.00362077
7.0472e-05
0.0036166
7.18258e-05
0.00361236
7.31564e-05
0.00360805
7.44694e-05
0.00360367
7.57707e-05
0.00359924
7.70666e-05
0.00359473
7.83637e-05
0.00359016
7.96685e-05
0.00358552
8.09883e-05
0.00358082
8.23304e-05
8.37023e-05
0.00365813
-1.51437e-05
0.00365854
-1.23883e-05
0.0036588
-9.61021e-06
0.00365892
-6.8126e-06
0.00365889
-3.99941e-06
0.00365871
-1.17128e-06
0.00365838
1.66917e-06
0.0036579
4.51867e-06
0.00365727
7.37334e-06
0.00365649
1.02286e-05
0.00365555
1.30796e-05
0.00365446
1.59208e-05
0.00365321
1.87467e-05
0.00365182
2.15516e-05
0.00365028
2.43298e-05
0.00364859
2.70758e-05
0.00364675
2.97841e-05
0.00364478
3.24498e-05
0.00364266
3.50679e-05
0.00364041
3.76343e-05
0.00363803
4.01449e-05
0.00363552
4.25965e-05
0.00363288
4.4986e-05
0.00363013
4.73113e-05
0.00362726
4.95705e-05
0.00362427
5.17624e-05
0.00362118
5.38864e-05
0.00361799
5.59425e-05
0.00361469
5.79311e-05
0.0036113
5.98533e-05
0.00360782
6.17107e-05
0.00360424
6.35053e-05
0.00360058
6.52398e-05
0.00359684
6.69172e-05
0.00359302
6.8541e-05
0.00358913
7.01151e-05
0.00358516
7.16437e-05
0.00358111
7.31316e-05
0.003577
7.45838e-05
0.00357282
7.60057e-05
0.00356858
7.74028e-05
0.00356426
7.87812e-05
0.00355989
8.01471e-05
0.00355545
8.15071e-05
0.00355094
8.28681e-05
0.00354637
8.42372e-05
0.00354174
8.56217e-05
0.00353704
8.70294e-05
8.84682e-05
0.00361601
-1.5643e-05
0.00361637
-1.2749e-05
0.00361659
-9.82897e-06
0.00361667
-6.88766e-06
0.0036166
-3.92868e-06
0.00361638
-9.52661e-07
0.00361601
2.03753e-06
0.00361549
5.03833e-06
0.00361482
8.04544e-06
0.00361399
1.10539e-05
0.00361301
1.40581e-05
0.00361188
1.70523e-05
0.0036106
2.00303e-05
0.00360916
2.2986e-05
0.00360758
2.59132e-05
0.00360585
2.88059e-05
0.00360398
3.16584e-05
0.00360196
3.44652e-05
0.00359981
3.72213e-05
0.00359752
3.99221e-05
0.0035951
4.25636e-05
0.00359256
4.51421e-05
0.00358989
4.76546e-05
0.0035871
5.00988e-05
0.0035842
5.24727e-05
0.00358118
5.47753e-05
0.00357806
5.70059e-05
0.00357484
5.91645e-05
0.00357152
6.12516e-05
0.00356811
6.32685e-05
0.0035646
6.52168e-05
0.00356101
6.70988e-05
0.00355733
6.89173e-05
0.00355357
7.06754e-05
0.00354974
7.2377e-05
0.00354582
7.4026e-05
0.00354184
7.56271e-05
0.00353779
7.71852e-05
0.00353367
7.87055e-05
0.00352948
8.01938e-05
0.00352522
8.16559e-05
0.00352091
8.30982e-05
0.00351653
8.45272e-05
0.00351208
8.59498e-05
0.00350758
8.73732e-05
0.00350301
8.88048e-05
0.00349838
9.02523e-05
0.00349369
9.1724e-05
9.3228e-05
0.00357439
-1.60953e-05
0.0035747
-1.30642e-05
0.00357488
-1.00035e-05
0.00357491
-6.91943e-06
0.00357479
-3.81529e-06
0.00357453
-6.91735e-07
0.00357412
2.44808e-06
0.00357356
5.60025e-06
0.00357285
8.75998e-06
0.00357198
1.19218e-05
0.00357096
1.50795e-05
0.00356978
1.82268e-05
0.00356846
2.1357e-05
0.00356698
2.44633e-05
0.00356535
2.75393e-05
0.00356358
3.05784e-05
0.00356166
3.35745e-05
0.00355961
3.65218e-05
0.00355741
3.94151e-05
0.00355509
4.22495e-05
0.00355263
4.50206e-05
0.00355005
4.77249e-05
0.00354734
5.03591e-05
0.00354452
5.29208e-05
0.00354158
5.54081e-05
0.00353854
5.78199e-05
0.00353539
6.01555e-05
0.00353214
6.2415e-05
0.00352879
6.45991e-05
0.00352535
6.67091e-05
0.00352182
6.87467e-05
0.00351821
7.07144e-05
0.00351451
7.26152e-05
0.00351073
7.44525e-05
0.00350688
7.62301e-05
0.00350295
7.79525e-05
0.00349895
7.96245e-05
0.00349489
8.12511e-05
0.00349075
8.28381e-05
0.00348656
8.43912e-05
0.0034823
8.59168e-05
0.00347797
8.74214e-05
0.00347359
8.89119e-05
0.00346914
9.03954e-05
0.00346464
9.18796e-05
0.00346007
9.33721e-05
0.00345544
9.48811e-05
0.00345075
9.64149e-05
9.79825e-05
0.00353325
-1.64996e-05
0.00353351
-1.33328e-05
0.00353364
-1.01325e-05
0.00353363
-6.90661e-06
0.00353347
-3.65778e-06
0.00353317
-3.86852e-07
0.00353271
2.90267e-06
0.00353211
6.20645e-06
0.00353135
9.51915e-06
0.00353043
1.28346e-05
0.00352937
1.61462e-05
0.00352815
1.94468e-05
0.00352678
2.27293e-05
0.00352525
2.59863e-05
0.00352358
2.92108e-05
0.00352176
3.23958e-05
0.0035198
3.5535e-05
0.0035177
3.86221e-05
0.00351547
4.16516e-05
0.0035131
4.46185e-05
0.0035106
4.75182e-05
0.00350798
5.03469e-05
0.00350524
5.31015e-05
0.00350238
5.57793e-05
0.00349941
5.83784e-05
0.00349633
6.08978e-05
0.00349315
6.33368e-05
0.00348987
6.56956e-05