/*--------------------------------*- C++ -*----------------------------------*\
  =========                 |
  \\      /  F ield         | OpenFOAM: The Open Source CFD Toolbox
   \\    /   O peration     | Website:  https://openfoam.org
    \\  /    A nd           | Version:  7
     \\/     M anipulation  |
\*---------------------------------------------------------------------------*/
FoamFile
{
    version     2.0;
    format      ascii;
    class       surfaceScalarField;
    location    "15";
    object      phi;
}
// * * * * * * * * * * * * * * * * * * * * * * * * * * * * * * * * * * * * * //

dimensions      [0 3 -1 0 0 0 0];

internalField   nonuniform List<scalar> 
1256
(
0.0157143
0.00616363
0.0147108
0.00588602
0.00476703
0.012075
0.0136995
0.00577834
0.00462317
0.0110961
0.0126783
0.00564429
0.00444993
0.0101264
0.0116522
0.00547605
0.00425025
0.0091755
0.0106303
0.00527216
0.0031047
0.00681953
0.00402801
0.00825219
0.00962286
0.00503546
0.00289958
0.00606787
0.00378751
0.00736426
0.00864013
0.00477024
0.00268762
0.00535745
0.00353351
0.00651837
0.00769156
0.00448208
0.00247259
0.00469122
0.00327116
0.00571979
0.00678519
0.00417754
0.00225834
0.00407104
0.00300586
0.00497228
0.00592733
0.00386371
0.00204874
0.00349756
0.00274309
0.00427793
0.00512236
0.00354806
0.00132025
0.00232799
0.00184755
0.00297026
0.00248833
0.00363715
0.00437257
0.00323812
0.0011756
0.00194305
0.00165842
0.00248743
0.00224685
0.00304872
0.00367817
0.00294125
0.00104359
0.00159363
0.00148475
0.00204626
0.00202365
0.00250983
0.00303734
0.00266449
0.000926299
0.00127611
0.00132968
0.00164289
0.00182329
0.00201621
0.00244631
0.00241432
0.000825591
0.000986213
0.00119597
0.0012725
0.00164984
0.00156234
0.00189964
0.00219652
0.000743051
0.000719104
0.00108604
0.000929516
0.00150678
0.0011416
0.00139033
0.00201608
0.00067998
0.000469496
0.00100183
0.000607668
0.00139695
0.000746484
0.000910181
0.0018771
0.000637371
0.000944843
0.00132251
0.000368821
0.000450011
0.00178268
0.00128491
0.00173492
-0.00617491
0.00542274
0.00508982
-0.00611066
-0.00618278
0.00509769
0.00478325
-0.0060072
0.00478784
-0.00611525
-0.00617948
0.00478455
0.00450695
0.00449756
0.00448171
0.00557516
0.000269436
0.0055121
0.000378005
0.00545258
0.000472985
0.0053966
0.000557143
0.00534395
0.000632316
0.00529444
0.000699628
0.00524784
0.000759934
0.00520396
0.000813897
0.00516262
0.000862046
0.00512363
0.000904806
0.00508686
0.000942527
0.00505215
0.000975504
0.00501937
0.001004
0.00498843
0.00102825
0.00495922
0.00104851
0.00493165
0.00106501
0.00490565
0.00107801
0.00488113
0.00108778
0.00485804
0.00109461
0.00483632
0.00109881
0.00481591
0.0011007
0.00110065
0.00535863
5.79557e-05
0.00528957
0.000213564
0.00522339
0.00033562
0.00516192
0.000439474
0.00510501
0.000529896
0.00505205
0.000610095
0.00500264
0.000681731
0.00495644
0.000745831
0.00491318
0.000803192
0.00487263
0.000854443
0.00483459
0.000900087
0.00479887
0.000940528
0.0047653
0.000976095
0.00473374
0.00100706
0.00470406
0.00103368
0.00467615
0.00105616
0.00464991
0.00107475
0.00462525
0.00108967
0.0046021
0.00110117
0.00458037
0.00110951
0.00456
0.00111497
0.00454094
0.00111786
0.00452314
0.0011185
0.00111724
0.00502276
0.000132885
0.00495107
0.000285255
0.00488656
0.000400121
0.0048284
0.00049764
0.00477517
0.00058312
0.00472594
0.000659329
0.0046802
0.000727475
0.00463759
0.000788434
0.00459786
0.000842929
0.00456075
0.000891551
0.00452606
0.000934775
0.00449361
0.000972983
0.00446322
0.00100648
0.00443476
0.00103552
0.00440811
0.00106033
0.00438314
0.00108113
0.00435976
0.00109812
0.0043379
0.00111154
0.00431746
0.0011216
0.00429838
0.00112858
0.0042806
0.00113275
0.00426406
0.0011344
0.00424871
0.00113385
0.00113144
0.00469605
0.000221384
0.00462536
0.000355946
0.00456544
0.000460039
0.00451214
0.000550939
0.00446339
0.000631864
0.00441831
0.00070441
0.00437649
0.000769303
0.00433761
0.000827305
0.00430146
0.000879086
0.0042678
0.000925213
0.00423643
0.000966141
0.00420718
0.00100223
0.0041799
0.00103376
0.00415444
0.00106098
0.00413069
0.00108409
0.00410854
0.00110328
0.0040879
0.00111877
0.00406868
0.00113075
0.00405082
0.00113947
0.00403424
0.00114516
0.00401888
0.0011481
0.0040047
0.00114858
0.00399165
0.00114691
0.00114342
0.00437537
0.000327722
0.00431316
0.000418156
0.00426102
0.000512185
0.00421366
0.000598297
0.0041698
0.00067572
0.00412905
0.000745166
0.00409119
0.000807155
0.00405605
0.000862445
0.00402343
0.000911707
0.00399314
0.000955503
0.003965
0.00099428
0.00393885
0.00102838
0.00391454
0.00105807
0.00389195
0.00108357
0.00387096
0.00110508
0.00385148
0.00112277
0.00383341
0.00113683
0.00381668
0.00114748
0.00380123
0.00115492
0.00378699
0.00115941
0.0037739
0.00116119
0.00376191
0.00116057
0.00375098
0.00115784
0.00115333
0.00583848
0.000375261
0.0057644
0.000492236
0.00568933
0.000587256
0.00562153
0.000666092
0.00556219
0.00073506
0.00551126
0.000796102
0.00546825
0.00085016
0.00543251
0.000898185
0.00540335
0.000940867
0.00538014
0.000978718
0.00536231
0.00101211
0.00534937
0.00104132
0.0053409
0.00106654
0.00533653
0.00108794
0.00533593
0.00110568
0.00533879
0.0011199
0.00534486
0.00113077
0.00535389
0.00113845
0.00536565
0.00114316
0.00537995
0.00114511
0.00539661
0.00114454
0.00541546
0.00114172
0.00543635
0.00113695
0.00113051
0.0057069
0.000446702
0.00564639
0.000552742
0.00558499
0.000648658
0.00552904
0.000722044
0.00547994
0.000784155
0.00543786
0.000838184
0.00540257
0.000885451
0.0053736
0.000927159
0.0053504
0.000964063
0.00533247
0.000996648
0.00531934
0.00102524
0.00531061
0.00105005
0.00530591
0.00107124
0.00530492
0.00108893
0.00530736
0.00110325
0.00531295
0.00111431
0.00532146
0.00112225
0.00533268
0.00112724
0.00534639
0.00112945
0.00536241
0.00112909
0.00538057
0.00112638
0.00540072
0.00112157
0.00542273
0.00111494
0.00110677
0.00556734
0.000523653
0.00550615
0.000613924
0.0054525
0.000702315
0.00540627
0.000768272
0.00536698
0.000823441
0.00533411
0.000871053
0.00530723
0.000912331
0.00528586
0.000948527
0.00526954
0.00098039
0.00525783
0.00100836
0.00525034
0.00103272
0.00524676
0.00105364
0.00524675
0.00107124
0.00525007
0.00108562
0.00525645
0.00109687
0.00526566
0.00110509
0.00527749
0.00111042
0.00529175
0.00111298
0.00530825
0.00111295
0.00532681
0.00111052
0.00534728
0.0011059
0.00536952
0.00109933
0.00539341
0.00109105
0.00108135
0.00539884
0.000600865
0.00534024
0.000672522
0.00529346
0.000749093
0.00525598
0.000805759
0.00522598
0.000853432
0.00520227
0.000894772
0.00518406
0.000930536
0.00517079
0.000961801
0.00516197
0.000989211
0.0051572
0.00101313
0.00515616
0.00103376
0.00515854
0.00105126
0.00516409
0.00106569
0.00517257
0.00107714
0.00518376
0.00108568
0.00519745
0.0010914
0.00521347
0.0010944
0.00523162
0.00109483
0.00525174
0.00109283
0.00527367
0.00108859
0.00529727
0.0010823
0.00532241
0.00107419
0.00534896
0.0010645
0.00105347
0.00519998
0.000673048
0.00514707
0.000725433
0.00510796
0.000788201
0.00507923
0.000834486
0.00505848
0.000874182
0.00504403
0.000909223
0.00503482
0.000939747
0.00503012
0.000966496
0.00502942
0.00098992
0.00503229
0.00101025
0.00503844
0.00102762
0.00504758
0.00104211
0.0050595
0.00105378
0.00507397
0.00106267
0.00509081
0.00106884
0.00510982
0.00107238
0.00513084
0.00107338
0.0051537
0.00107197
0.00517826
0.00106828
0.00520435
0.0010625
0.00523185
0.0010548
0.00526064
0.0010454
0.00529061
0.00103453
0.00102242
0.00497291
0.000735598
0.00492853
0.00076981
0.00489842
0.000818313
0.00487899
0.000853912
0.00486773
0.000885449
0.00486275
0.000914198
0.00486282
0.000939677
0.0048671
0.000962221
0.00487499
0.000982028
0.00488608
0.000999161
0.00490004
0.00101366
0.00491661
0.00102553
0.00493559
0.0010348
0.00495677
0.00104149
0.00497997
0.00104564
0.00500503
0.00104732
0.00503178
0.00104663
0.00506008
0.00104367
0.00508977
0.00103859
0.00512074
0.00103154
0.00515284
0.0010227
0.00518597
0.00101227
0.00522002
0.00100048
0.000987538
0.00472073
0.000785106
0.00468754
0.000802994
0.00466803
0.000837825
0.00465879
0.000863156
0.00465747
0.000886767
0.00466227
0.0009094
0.00467189
0.000930059
0.00468543
0.000948673
0.00470229
0.000965172
0.00472201
0.000979442
0.00474426
0.000991404
0.00476879
0.001001
0.00479538
0.00100821
0.00482384
0.00101303
0.004854
0.00101548
0.0048857
0.00101562
0.00491879
0.00101354
0.00495313
0.00100933
0.00498858
0.00100314
0.00502501
0.000995107
0.0050623
0.000985407
0.00510035
0.000974227
0.00513905
0.000961771
0.00444804
0.000819154
0.00442815
0.00082288
0.00442071
0.000845271
0.00442258
0.000861282
0.00443176
0.000877582
0.00444667
0.000894495
0.00446608
0.000910647
0.00448913
0.000925619
0.00451521
0.000939096
0.00454386
0.000950795
0.00457474
0.000960523
0.00460759
0.000968152
0.0046422
0.000973606
0.00467837
0.000976856
0.00471594
0.00097791
0.00475475
0.000976812
0.00479465
0.000973635
0.0048355
0.000968477
0.00487718
0.000961462
0.00491956
0.000952732
0.00496251
0.000942448
0.00500595
0.000930788
0.000917944
0.00416058
0.000836106
0.00415546
0.000828
0.00416118
0.000839557
0.00417493
0.000847527
0.0041951
0.000857409
0.00422041
0.000869188
0.00424981
0.000881253
0.00428251
0.000892913
0.00431795
0.000903658
0.00435569
0.000913059
0.00439539
0.000920823
0.00443678
0.000926755
0.00447966
0.000930732
0.00452382
0.000932697
0.00456909
0.000932637
0.00461532
0.000930582
0.00466236
0.000926595
0.00471007
0.000920767
0.00475832
0.000913212
0.00480699
0.000904064
0.00485596
0.000893473
0.00490514
0.000881608
0.000868649
0.0038648
0.000835021
0.0038753
0.0008175
0.00389482
0.000820035
0.00392093
0.000821413
0.00395241
0.000825935
0.00398829
0.000833306
0.00402775
0.000841793
0.00407014
0.000850521
0.00411496
0.000858837
0.00416181
0.000866209
0.00421037
0.000872263
0.00426038
0.000876747
0.00431161
0.000879501
0.00436387
0.000880436
0.00441699
0.000879522
0.00447079
0.000876776
0.00452514
0.000872247
0.00457989
0.000866019
0.00463491
0.000858194
0.00469007
0.000848899
0.00474527
0.000838274
0.0048004
0.000826475
0.000813671
0.0035675
0.000815587
0.0035939
0.000791093
0.00362743
0.000786512
0.00366604
0.000782799
0.00370889
0.000783091
0.00375534
0.000786856
0.0038048
0.000792334
0.00385677
0.000798547
0.00391085
0.000804756
0.00396669
0.000810368
0.004024
0.000814955
0.00408252
0.000818225
0.00414204
0.000819985
0.00420235
0.000820125
0.00426327
0.000818596
0.00432465
0.000815401
0.00438632
0.000810581
0.00444813
0.000804204
0.00450996
0.000796368
0.00457167
0.000787185
0.00463316
0.000776787
0.00469432
0.000765316
0.000752929
0.00327564
0.000778066
0.00331772
0.000749011
0.003365
0.000739227
0.00341591
0.000731895
0.00346992
0.000729076
0.00352672
0.000730056
0.00358594
0.000733121
0.00364723
0.000737256
0.00371029
0.000741693
0.00377484
0.000745815
0.00384063
0.000749171
0.00390741
0.000751444
0.00397497
0.000752422
0.00404312
0.000751979
0.00411166
0.000750053
0.00418043
0.000746633
0.00424926
0.000741748
0.00431801
0.000735459
0.00438653
0.00072785
0.00445469
0.000719023
0.00452238
0.000709098
0.00458949
0.000698206
0.000686487
0.00299607
0.000723241
0.00305314
0.00069195
0.00311355
0.000678813
0.0031762
0.00066924
0.00324091
0.000664369
0.00330761
0.000663356
0.00337614
0.000664594
0.0034463
0.00066709
0.00351791
0.00067009
0.00359073
0.00067299
0.00366456
0.00067534
0.00373919
0.00067682
0.0038144
0.000677211
0.00389
0.000676378
0.0039658
0.000674249
0.00404163
0.000670804
0.00411732
0.000666062
0.0041927
0.000660074
0.00426764
0.000652911
0.004342
0.000644666
0.00441565
0.000635443
0.0044885
0.00062536
0.000614544
0.00273538
0.000652355
0.00280632
0.000621006
0.00287889
0.000606245
0.00295245
0.000595678
0.00302711
0.000589709
0.00310303
0.000587434
0.00318023
0.000587397
0.00325865
0.000588671
0.00333818
0.000590558
0.00341868
0.000592493
0.00349997
0.000594052
0.00358186
0.000594928
0.00366416
0.000594908
0.00374668
0.000593857
0.00382923
0.000591699
0.00391163
0.000588407
0.0039937
0.000583992
0.00407528
0.000578494
0.00415622
0.000571975
0.00423637
0.000564513
0.00431561
0.000556201
0.00439383
0.00054714
0.000537441
0.00249963
0.000567038
0.00258303
0.000537611
0.00266649
0.000522785
0.00274985
0.000512311
0.00283349
0.000506075
0.00291774
0.000503181
0.00300277
0.000502363
0.00308865
0.0005028
0.00317533
0.000503872
0.00326274
0.00050508
0.00335075
0.000506045
0.00343919
0.000506489
0.00352788
0.000506216
0.00361664
0.000505098
0.00370528
0.000503062
0.00379361
0.000500077
0.00388145
0.000496149
0.00396864
0.000491308
0.00405501
0.000485604
0.00414041
0.000479104
0.00422473
0.000471885
0.00430784
0.000464034
0.000455645
0.00229432
0.00046924
0.00238846
0.000443473
0.00248131
0.000429931
0.00257316
0.000420461
0.00266458
0.000414651
0.00275608
0.000411682
0.00284794
0.000410508
0.0029403
0.000410441
0.00303321
0.000410962
0.00312663
0.000411655
0.00322048
0.000412201
0.0033146
0.000412364
0.00340884
0.000411973
0.00350302
0.000410918
0.00359695
0.000409131
0.00369045
0.000406584
0.00378332
0.000403278
0.00387539
0.000399234
0.00396651
0.000394492
0.0040565
0.000389106
0.00414525
0.000383137
0.00423263
0.000376656
0.00036974
0.00212416
0.000361166
0.00222712
0.000340512
0.00232769
0.000329363
0.00242652
0.000321627
0.00252438
0.000316793
0.00262188
0.000314186
0.00271938
0.000313001
0.00281712
0.000312704
0.00291519
0.000312895
0.00301359
0.000313251
0.00311227
0.000313526
0.0032111
0.000313532
0.00330994
0.000313137
0.0034086
0.00031225
0.00350692
0.000310817
0.00360469
0.000308814
0.00370173
0.000306238
0.00379786
0.000303104
0.00389291
0.000299443
0.00398672
0.000295293
0.00407915
0.000290702
0.00417009
0.000285724
0.000280416
0.00199304
0.000245222
0.00210275
0.000230808
0.00220921
0.000222899
0.0023134
0.00021744
0.0024162
0.000213992
0.00251831
0.000212074
0.00262017
0.000211138
0.00272205
0.000210822
0.00282409
0.000210853
0.00292633
0.000211011
0.00302873
0.000211129
0.00313119
0.000211077
0.00323356
0.000210764
0.00333568
0.000210127
0.00343737
0.000209128
0.00353844
0.000207747
0.00363869
0.000205984
0.00373795
0.000203846
0.00383604
0.000201355
0.00393279
0.000198536
0.00402808
0.000195421
0.00412175
0.000192045
0.000188448
0.00190394
0.000123954
0.0020182
0.000116551
0.00212865
0.000112452
0.00223645
0.000109633
0.0023426
0.000107842
0.00244785
0.000106829
0.00255267
0.000106317
0.00265737
0.000106124
0.00276211
0.00010611
0.00286696
0.000106165
0.00297188
0.000106204
0.0030768
0.000106161
0.00318157
0.00010599
0.00328604
0.000105657
0.00339003
0.000105144
0.00349333
0.00010444
0.00359577
0.000103545
0.00369716
0.000102462
0.00379731
0.000101201
0.00389607
9.97755e-05
0.00399329
9.82014e-05
0.00408884
9.64964e-05
9.46802e-05
0.00185888
0.00197543
0.00208788
0.00219751
0.00230536
0.00241218
0.0025185
0.00262462
0.00273073
0.0028369
0.0029431
0.00304926
0.00315525
0.00326091
0.00336605
0.00347049
0.00357403
0.00367649
0.00377769
0.00387747
0.00397567
0.00407217
)
;

boundaryField
{
    inlet
    {
        type            calculated;
        value           nonuniform 0();
    }
    outlet
    {
        type            calculated;
        value           nonuniform 0();
    }
    cylinder
    {
        type            calculated;
        value           nonuniform 0();
    }
    top
    {
        type            symmetryPlane;
        value           nonuniform 0();
    }
    bottom
    {
        type            symmetryPlane;
        value           nonuniform 0();
    }
    defaultFaces
    {
        type            empty;
        value           nonuniform 0();
    }
    procBoundary6to2
    {
        type            processor;
        value           nonuniform List<scalar> 
30
(
0.00615487
-0.0054027
0.00609258
-0.00507174
0.00599112
-0.000203888
-0.000314948
-0.000413471
-0.000501155
-0.000579671
-0.000650113
-0.000713337
-0.00077002
-0.000820701
-0.000865823
-0.00090575
-0.000940792
-0.000971227
-0.000997312
-0.0010193
-0.00103744
-0.001052
-0.00106326
-0.00107152
-0.00107708
-0.00108029
-0.00108151
6.15539e-06
-0.0056407
-0.000144506
)
;
    }
    procBoundary6to3
    {
        type            processor;
        value           uniform 0.00479677;
    }
    procBoundary6to5
    {
        type            processor;
        value           nonuniform List<scalar> 
28
(
-0.00601027
-0.0169052
-0.00610586
-0.00497271
-0.00488251
-0.0130531
-0.00378892
-0.00364427
-0.00348024
-0.00329938
-0.00760846
-0.00231577
-0.00214791
-0.00197719
-0.00180637
-0.00163816
-0.00147526
-0.00275134
-0.0008969
-0.00079066
-0.000694168
-0.000608779
-0.000535694
-0.000475943
-0.000430372
-0.000399627
-0.00476717
-0.00450388
)
;
    }
    procBoundary6to7
    {
        type            processor;
        value           nonuniform List<scalar> 
25
(
0.00450655
0.00423451
0.00397967
0.00374106
0.00545917
0.00544647
0.00541884
0.00537684
0.00532166
0.0052549
0.00517833
0.000948258
0.00504978
0.00495444
0.00485538
0.00475506
0.00465593
0.00456044
0.00447094
0.00438963
0.00431854
0.00425941
0.00421372
0.00418261
0.00416685
)
;
    }
    procBoundary6to10
    {
        type            processor;
        value           nonuniform List<scalar> 
28
(
1.45578e-10
2.27128e-10
0.000231752
0.000300196
-0.000916092
1.51226e-10
1.79402e-10
2.10497e-10
2.45314e-10
2.83244e-10
3.24351e-10
3.68277e-10
4.14516e-10
4.62347e-10
5.10652e-10
5.58171e-10
6.03183e-10
6.43581e-10
6.76882e-10
7.0026e-10
7.10179e-10
7.02828e-10
6.73505e-10
6.17652e-10
5.29359e-10
4.03763e-10
2.34579e-10
1.76405e-11
)
;
    }
}


// ************************************************************************* //
