/*--------------------------------*- C++ -*----------------------------------*\
  =========                 |
  \\      /  F ield         | OpenFOAM: The Open Source CFD Toolbox
   \\    /   O peration     | Website:  https://openfoam.org
    \\  /    A nd           | Version:  7
     \\/     M anipulation  |
\*---------------------------------------------------------------------------*/
FoamFile
{
    version     2.0;
    format      ascii;
    class       volVectorField;
    location    "15";
    object      U;
}
// * * * * * * * * * * * * * * * * * * * * * * * * * * * * * * * * * * * * * //

dimensions      [0 1 -1 0 0 0 0];

internalField   nonuniform List<vector> 
656
(
(1.08285 0.011262 -1.50621e-19)
(1.04131 0.0179793 -3.61569e-19)
(0.914639 0.0645723 -6.9998e-19)
(0.999437 0.0293176 6.29081e-19)
(0.861027 0.075662 5.18169e-19)
(0.953707 0.0417773 -6.14159e-20)
(0.805595 0.0847472 -2.10973e-19)
(0.903703 0.0534015 -1.69706e-19)
(0.748909 0.0918609 -4.57986e-19)
(0.850132 0.0638051 -4.02683e-20)
(0.605197 0.0950776 1.27558e-19)
(0.691606 0.0970242 4.32775e-19)
(0.793817 0.0728151 8.17285e-20)
(0.551673 0.0972918 -1.59225e-19)
(0.63434 0.100252 -3.98468e-19)
(0.735589 0.0801852 -7.87028e-20)
(0.499303 0.0978318 7.88905e-20)
(0.577774 0.101578 3.35299e-19)
(0.676333 0.0856964 1.76932e-19)
(0.448635 0.0967323 2.94249e-19)
(0.522569 0.101062 -2.31287e-19)
(0.616989 0.0891996 -1.39281e-19)
(0.400198 0.0940552 -7.05443e-19)
(0.469376 0.0987835 1.08635e-19)
(0.558518 0.0906082 1.95205e-20)
(0.354492 0.0898852 3.23068e-19)
(0.418822 0.0948385 1.61101e-19)
(0.501879 0.0898914 -1.37552e-19)
(0.248157 0.0771731 -4.15988e-19)
(0.311984 0.084326 3.14753e-19)
(0.3715 0.0893373 -1.48246e-19)
(0.447998 0.0870722 2.0302e-19)
(0.215037 0.0702402 5.04294e-19)
(0.2731 0.0774962 -2.41099e-19)
(0.327963 0.0824033 1.75902e-19)
(0.397756 0.0822267 8.23379e-20)
(0.185531 0.0624964 1.36074e-19)
(0.238224 0.0695259 -8.59941e-20)
(0.288715 0.0741714 -3.33433e-19)
(0.351959 0.0754799 -2.86504e-19)
(0.15985 0.0540535 -1.05576e-19)
(0.207695 0.060554 -2.56482e-19)
(0.254209 0.0647875 -8.71499e-22)
(0.311332 0.0670011 2.04227e-19)
(0.138174 0.0450222 -2.46241e-19)
(0.181806 0.0507259 1.42758e-19)
(0.224838 0.0544075 7.04846e-20)
(0.276505 0.0569974 -9.96485e-20)
(0.120652 0.0355116 1.55972e-19)
(0.160801 0.0401916 -8.34472e-21)
(0.200935 0.0431971 -2.59757e-20)
(0.248008 0.0457073 1.02279e-19)
(0.107405 0.0256297 6.44968e-21)
(0.144876 0.0291049 1.0062e-19)
(0.18277 0.0313307 6.55419e-20)
(0.226265 0.0333934 -1.00659e-20)
(0.098523 0.0154834 3.4558e-20)
(0.134177 0.0176219 -3.99168e-20)
(0.170545 0.0189898 -1.52541e-20)
(0.211593 0.0203364 -5.53134e-21)
(0.164399 0.00636193 -1.35086e-20)
(0.204204 0.00682904 1.24373e-20)
(1.19342 -0.00695734 -3.42056e-20)
(1.20471 -0.0128881 -7.21261e-20)
(1.1783 -0.0039812 -1.88347e-19)
(1.21135 -0.0178097 -4.59387e-20)
(1.19061 -0.00948397 5.45062e-20)
(1.16217 -0.00129481 2.70542e-19)
(1.19876 -0.0134339 2.09462e-19)
(1.17478 -0.00543865 -4.18955e-20)
(1.14414 0.00193992 -2.81262e-21)
(1.16902 0.0191943 0)
(1.15546 0.0274059 0)
(1.14271 0.0341202 0)
(1.13068 0.039616 0)
(1.11937 0.0441125 0)
(1.10873 0.0477606 0)
(1.09873 0.0506801 0)
(1.08931 0.0529678 0)
(1.08044 0.0547039 0)
(1.07208 0.0559555 0)
(1.06419 0.0567802 0)
(1.05675 0.0572276 0)
(1.04972 0.0573419 0)
(1.04309 0.0571629 0)
(1.03683 0.0567271 0)
(1.03091 0.0560684 0)
(1.02534 0.0552187 0)
(1.02008 0.0542083 0)
(1.01512 0.0530657 0)
(1.01045 0.051818 0)
(1.00606 0.0504908 0)
(1.00195 0.0491084 0)
(1.17574 0.00196769 0)
(1.16487 0.0148697 0)
(1.14922 0.024612 0)
(1.13521 0.0323817 0)
(1.12234 0.0386347 0)
(1.11035 0.0437164 0)
(1.09918 0.0478427 0)
(1.08874 0.0511588 0)
(1.07898 0.0537792 0)
(1.06983 0.055797 0)
(1.06125 0.057289 0)
(1.0532 0.0583195 0)
(1.04563 0.0589434 0)
(1.03852 0.0592081 0)
(1.03184 0.0591556 0)
(1.02555 0.058824 0)
(1.01963 0.0582482 0)
(1.01408 0.0574608 0)
(1.00885 0.0564927 0)
(1.00395 0.055373 0)
(0.999354 0.0541293 0)
(0.995048 0.0527881 0)
(0.991023 0.0513743 0)
(0.987266 0.0499115 0)
(1.15695 0.00797649 0)
(1.14423 0.0208143 0)
(1.12787 0.0299788 0)
(1.11388 0.0371451 0)
(1.10121 0.0428867 0)
(1.08948 0.0475459 0)
(1.07862 0.0513065 0)
(1.06851 0.0542995 0)
(1.05908 0.0566316 0)
(1.05028 0.0583908 0)
(1.04206 0.0596501 0)
(1.03438 0.0604708 0)
(1.02718 0.0609049 0)
(1.02044 0.0609975 0)
(1.01413 0.0607884 0)
(1.00822 0.0603138 0)
(1.00268 0.0596071 0)
(0.997498 0.0586996 0)
(0.992652 0.0576211 0)
(0.988126 0.0563997 0)
(0.983904 0.0550622 0)
(0.979972 0.0536344 0)
(0.97632 0.0521404 0)
(0.972935 0.0506032 0)
(1.13565 0.015279 0)
(1.12136 0.0268168 0)
(1.10522 0.0350091 0)
(1.09176 0.0415085 0)
(1.07959 0.0467616 0)
(1.06833 0.0510306 0)
(1.0579 0.0544545 0)
(1.04821 0.0571496 0)
(1.0392 0.0592154 0)
(1.03081 0.0607355 0)
(1.02301 0.0617799 0)
(1.01573 0.0624069 0)
(1.00894 0.062666 0)
(1.0026 0.0625999 0)
(0.996692 0.0622464 0)
(0.991178 0.06164 0)
(0.986037 0.0608128 0)
(0.981249 0.0597947 0)
(0.976794 0.0586146 0)
(0.972655 0.0572996 0)
(0.968819 0.0558758 0)
(0.965271 0.0543682 0)
(0.961999 0.0528003 0)
(0.958991 0.0511948 0)
(1.11056 0.0233194 0)
(1.09626 0.0325279 0)
(1.08166 0.0396157 0)
(1.06923 0.0455039 0)
(1.05778 0.0503351 0)
(1.04711 0.0542538 0)
(1.03721 0.0573665 0)
(1.02801 0.0597822 0)
(1.01948 0.0615964 0)
(1.01155 0.0628901 0)
(1.00419 0.0637308 0)
(0.997354 0.0641743 0)
(0.990997 0.0642675 0)
(0.985089 0.064051 0)
(0.979598 0.0635609 0)
(0.974498 0.06283 0)
(0.969766 0.0618889 0)
(0.965382 0.0607667 0)
(0.961328 0.0594909 0)
(0.957585 0.058088 0)
(0.954141 0.0565835 0)
(0.950981 0.0550014 0)
(0.948093 0.0533649 0)
(0.945466 0.0516959 0)
(1.06575 0.0322544 1.93527e-19)
(1.05837 0.0403098 -1.55411e-20)
(1.04759 0.0464165 -1.09479e-20)
(1.03707 0.0514694 -4.23235e-20)
(1.02684 0.0556769 -7.99515e-20)
(1.01716 0.0590307 1.73773e-20)
(1.00812 0.0616273 3.89554e-20)
(0.999732 0.0635806 -6.90681e-20)
(0.991957 0.064982 2.05933e-20)
(0.984762 0.0659085 -1.84341e-20)
(0.978108 0.0664226 3.3863e-20)
(0.971955 0.0665751 -2.97993e-20)
(0.966266 0.0664086 8.77442e-20)
(0.96101 0.0659595 -5.07818e-20)
(0.956157 0.0652607 5.72843e-21)
(0.951684 0.064342 -2.40504e-21)
(0.947566 0.0632319 1.53314e-20)
(0.943786 0.0619574 -2.44795e-20)
(0.940324 0.0605442 2.79052e-20)
(0.937166 0.0590175 1.30773e-20)
(0.934296 0.0574012 -1.7052e-20)
(0.931701 0.0557183 1.13324e-20)
(0.92937 0.0539907 -8.59218e-21)
(0.927291 0.0522393 -8.84628e-21)
(1.01205 0.0369845 -6.30383e-20)
(1.00525 0.0475669 9.57578e-20)
(0.997033 0.0540086 -6.72054e-20)
(0.988853 0.0583888 6.04273e-20)
(0.980494 0.0618138 -1.05449e-19)
(0.972447 0.0643826 2.53967e-20)
(0.96491 0.0662542 6.01708e-20)
(0.957915 0.0675668 -3.95143e-21)
(0.951463 0.0684096 -1.7545e-20)
(0.945532 0.068851 -3.69295e-21)
(0.94009 0.0689436 6.82837e-20)
(0.935106 0.0687291 -3.36338e-20)
(0.930549 0.0682421 6.28292e-21)
(0.926391 0.0675128 1.67493e-20)
(0.922607 0.0665686 2.43094e-21)
(0.919175 0.0654352 -4.0341e-20)
(0.916074 0.0641374 -1.23935e-20)
(0.913286 0.062699 -1.2012e-20)
(0.910796 0.0611433 2.57796e-20)
(0.908586 0.0594929 1.18192e-20)
(0.906645 0.0577695 -8.35627e-21)
(0.904959 0.0559941 -1.5992e-20)
(0.903517 0.054187 -2.65657e-21)
(0.902309 0.0523671 -1.50484e-21)
(0.96078 0.0435265 -8.27831e-20)
(0.95271 0.0533193 -7.97315e-21)
(0.945299 0.0594857 2.50536e-20)
(0.938691 0.0632924 9.6977e-21)
(0.931972 0.0661196 -9.21e-20)
(0.925542 0.0681089 6.51146e-20)
(0.919569 0.069444 -3.76249e-20)
(0.914072 0.0702789 -2.90417e-20)
(0.909051 0.0707023 7.78461e-20)
(0.904492 0.0707767 -7.59713e-21)
(0.90037 0.0705485 1.84106e-20)
(0.896659 0.0700532 -5.71476e-21)
(0.893332 0.0693203 5.32854e-21)
(0.890367 0.0683756 -2.42901e-20)
(0.887741 0.0672429 -1.14051e-20)
(0.885436 0.0659449 8.41651e-21)
(0.883433 0.0645039 -1.52331e-20)
(0.881717 0.0629414 7.65123e-21)
(0.88027 0.0612786 -1.11751e-20)
(0.879081 0.0595363 -1.53567e-20)
(0.878135 0.0577346 3.1818e-20)
(0.877422 0.0558928 -2.59273e-20)
(0.876929 0.0540295 6.11471e-21)
(0.876648 0.0521625 -1.44477e-20)
(0.90898 0.0511671 9.53374e-20)
(0.899781 0.0591264 9.17306e-20)
(0.892661 0.0642754 -7.09448e-20)
(0.887199 0.0672788 3.83373e-20)
(0.881913 0.0694706 -1.56675e-19)
(0.877026 0.0709282 6.30631e-20)
(0.872618 0.0718008 -8.85124e-21)
(0.868659 0.0722332 -1.01436e-20)
(0.865132 0.0723059 2.50142e-20)
(0.862019 0.0720737 -3.17608e-20)
(0.859293 0.071577 2.0797e-21)
(0.856932 0.0708462 9.82828e-20)
(0.854913 0.0699067 -7.17811e-20)
(0.853217 0.068781 3.56091e-20)
(0.851825 0.0674901 -4.78164e-20)
(0.850719 0.0660545 6.01487e-20)
(0.849883 0.0644943 -3.91276e-20)
(0.849303 0.0628292 1.00478e-20)
(0.848965 0.0610787 2.02201e-20)
(0.848857 0.0592621 -1.62162e-20)
(0.848965 0.0573978 1.56764e-20)
(0.849279 0.0555038 -1.27338e-20)
(0.849788 0.0535975 4.29967e-22)
(0.850484 0.0516953 1.16401e-21)
(0.855654 0.0584129 -9.44778e-20)
(0.846024 0.0644686 1.25139e-19)
(0.839262 0.068385 -8.52763e-20)
(0.83481 0.0704781 1.24951e-19)
(0.830842 0.0719918 -5.83046e-20)
(0.827429 0.0729268 -7.97702e-20)
(0.824561 0.0733728 -5.12152e-21)
(0.822148 0.0734482 3.06384e-20)
(0.820144 0.0732172 -1.60861e-20)
(0.818517 0.0727233 2.11574e-20)
(0.817238 0.0719994 2.81352e-20)
(0.816282 0.0710708 1.90548e-20)
(0.815629 0.0699591 1.44932e-20)
(0.81526 0.0686836 -1.50673e-20)
(0.815158 0.0672631 -4.509e-21)
(0.815307 0.065716 -2.41381e-20)
(0.815694 0.0640607 3.27242e-20)
(0.816305 0.0623153 5.00694e-21)
(0.817127 0.0604978 -1.73714e-20)
(0.818148 0.0586259 4.03209e-21)
(0.819357 0.056717 -2.39472e-20)
(0.820744 0.0547877 2.74464e-20)
(0.822299 0.052854 -1.69675e-20)
(0.824013 0.0509313 -1.01058e-20)
(0.80065 0.0648203 -6.96701e-20)
(0.791354 0.0689865 1.28703e-19)
(0.78528 0.0716171 -9.15398e-20)
(0.781902 0.0727797 1.54186e-19)
(0.779235 0.0736073 -9.26737e-20)
(0.777262 0.0740357 4.10129e-20)
(0.775908 0.0740899 -1.54499e-20)
(0.77503 0.0738516 -3.14127e-20)
(0.774553 0.0733627 2.26249e-20)
(0.77443 0.0726524 -4.28661e-20)
(0.774623 0.0717446 8.4107e-20)
(0.775105 0.0706587 -2.07304e-20)
(0.775852 0.0694121 -3.89795e-20)
(0.776848 0.0680216 -3.24588e-20)
(0.778076 0.0665036 3.32052e-20)
(0.779521 0.0648749 1.7268e-20)
(0.78117 0.0631521 -2.73643e-20)
(0.78301 0.0613522 2.70421e-20)
(0.78503 0.0594917 -3.752e-20)
(0.787218 0.0575872 1.75143e-20)
(0.789564 0.0556548 -1.58373e-20)
(0.792057 0.0537099 3.3415e-20)
(0.794688 0.0517675 -1.47688e-20)
(0.79745 0.0498418 8.18235e-21)
(0.744281 0.0701272 1.22793e-19)
(0.735979 0.0724934 6.45991e-21)
(0.730999 0.0738685 -3.92823e-20)
(0.728861 0.0741341 -3.06381e-20)
(0.727553 0.0742972 4.92121e-20)
(0.727025 0.0742451 2.77486e-20)
(0.72717 0.0739426 -4.58338e-20)
(0.72781 0.0734304 -1.68145e-20)
(0.728849 0.0727258 1.28848e-21)
(0.730227 0.0718414 -1.00403e-20)
(0.731896 0.0707907 -8.62672e-21)
(0.733825 0.0695866 1.35768e-20)
(0.735988 0.0682424 5.99365e-20)
(0.738367 0.0667717 -2.09777e-20)
(0.740945 0.065189 -5.76639e-21)
(0.743707 0.0635092 -1.30809e-20)
(0.746641 0.0617478 1.663e-21)
(0.749734 0.0599202 1.66683e-20)
(0.752974 0.0580421 -1.65625e-20)
(0.756351 0.0561288 -2.31142e-20)
(0.759855 0.0541952 3.12101e-20)
(0.763474 0.0522557 -8.74366e-21)
(0.767202 0.0503244 -3.67701e-21)
(0.77103 0.0484144 1.99838e-21)
(0.687138 0.0740822 1.57158e-19)
(0.68036 0.0748093 -1.08039e-19)
(0.676843 0.0750365 -6.69673e-20)
(0.676134 0.0744925 1.02068e-19)
(0.676277 0.0740474 2.80646e-20)
(0.677223 0.0735572 -2.25122e-20)
(0.678859 0.0729376 -5.68306e-20)
(0.680998 0.0721908 7.81594e-20)
(0.683533 0.0713093 -9.62407e-20)
(0.686391 0.0702895 1.22894e-20)
(0.689522 0.0691338 6.14287e-20)
(0.692889 0.0678483 1.1534e-20)
(0.696463 0.0664416 -6.85282e-20)
(0.700223 0.0649244 5.40163e-20)
(0.704152 0.0633089 -2.56239e-20)
(0.708236 0.0616085 -3.23606e-21)
(0.712459 0.0598371 1.31585e-20)
(0.71681 0.0580092 -2.4636e-20)
(0.721278 0.0561391 1.56285e-20)
(0.72585 0.0542412 -1.2732e-21)
(0.730518 0.0523294 5.41814e-21)
(0.735271 0.0504172 6.41535e-21)
(0.740101 0.0485174 -1.03501e-20)
(0.629972 0.0765026 -5.11906e-20)
(0.625121 0.0757944 7.81092e-20)
(0.623359 0.0750301 2.37426e-20)
(0.624243 0.0738021 -5.5391e-20)
(0.625925 0.0728352 1.11894e-20)
(0.628376 0.0719674 -1.63056e-20)
(0.631499 0.0710788 -1.951e-20)
(0.635114 0.070139 2.24361e-20)
(0.639111 0.0691193 -4.37958e-20)
(0.643419 0.0680008 7.51038e-20)
(0.64798 0.0667758 -4.91586e-20)
(0.652756 0.0654435 1.89141e-20)
(0.657716 0.0640079 4.39926e-21)
(0.662838 0.0624765 8.55445e-21)
(0.668101 0.0608593 -1.02478e-20)
(0.67349 0.0591679 4.9937e-21)
(0.67899 0.057415 -1.8864e-20)
(0.684588 0.0556138 7.89572e-21)
(0.690272 0.0537776 1.03399e-20)
(0.696031 0.0519197 -6.78391e-21)
(0.701855 0.050053 9.58241e-21)
(0.707732 0.0481901 -2.13617e-21)
(0.713656 0.0463428 -7.02701e-21)
(0.57362 0.0772774 -3.46383e-20)
(0.570983 0.0753672 1.17169e-19)
(0.571179 0.073794 -4.60085e-20)
(0.573765 0.0720285 4.28767e-20)
(0.577047 0.0706454 -7.40859e-20)
(0.581023 0.0694746 3.6814e-20)
(0.58562 0.0683734 -6.81582e-20)
(0.590678 0.0672861 1.11522e-19)
(0.596096 0.0661676 -5.87008e-20)
(0.601806 0.0649866 2.06814e-20)
(0.607752 0.0637265 -4.97327e-20)
(0.613893 0.0623803 3.62681e-20)
(0.620198 0.0609476 -1.67112e-20)
(0.626641 0.0594329 2.26418e-20)
(0.633202 0.0578439 -2.3659e-21)
(0.639863 0.0561904 -5.81384e-22)
(0.646609 0.0544838 -2.44909e-20)
(0.653425 0.0527359 1.59166e-20)
(0.660299 0.050959 4.56335e-21)
(0.667218 0.0491655 -1.29437e-20)
(0.674172 0.0473672 8.64745e-21)
(0.681151 0.0455757 -1.19184e-20)
(0.688146 0.0438021 1.36657e-20)
(0.518959 0.0763549 -6.22535e-20)
(0.518716 0.0734979 -7.78326e-20)
(0.520978 0.0713119 5.30329e-20)
(0.525315 0.069163 5.74078e-20)
(0.530219 0.0674793 -4.63638e-20)
(0.535714 0.0660891 6.23374e-21)
(0.541756 0.0648376 7.25085e-21)
(0.548211 0.0636517 -1.34301e-20)
(0.554996 0.0624749 -7.8006e-22)
(0.562049 0.0612672 1.12418e-20)
(0.569318 0.0600052 -7.94411e-21)
(0.576763 0.0586764 9.70542e-21)
(0.584353 0.0572769 -3.31153e-20)
(0.592061 0.0558081 3.38041e-20)
(0.599866 0.0542756 -2.97604e-21)
(0.607749 0.0526875 -1.82885e-20)
(0.615692 0.0510537 4.41847e-21)
(0.62368 0.0493849 1.13997e-20)
(0.631699 0.0476922 4.24562e-22)
(0.639737 0.0459868 -7.684e-21)
(0.647781 0.0442797 3.31854e-21)
(0.655821 0.0425815 6.77541e-21)
(0.663849 0.0409024 -8.62532e-21)
(0.466864 0.0737364 5.92459e-20)
(0.469097 0.0702024 -7.17886e-20)
(0.473449 0.0676031 1.47666e-20)
(0.479525 0.0652242 1.94636e-20)
(0.486026 0.0633577 2.02058e-20)
(0.493003 0.0618351 -5.5871e-20)
(0.500438 0.0604985 2.5108e-20)
(0.508229 0.0592648 5.57439e-21)
(0.516311 0.0580711 9.16434e-21)
(0.524632 0.0568723 -9.75258e-21)
(0.533147 0.0556402 2.00855e-20)
(0.541821 0.0543587 -3.56827e-20)
(0.550621 0.0530207 -4.83154e-21)
(0.559522 0.0516253 1.45012e-20)
(0.5685 0.050176 -1.30917e-20)
(0.577536 0.0486793 7.61021e-21)
(0.586611 0.0471436 -7.546e-21)
(0.595708 0.0455782 1.02097e-20)
(0.604812 0.0439933 -3.83541e-21)
(0.613909 0.0423988 6.15395e-21)
(0.622987 0.0408049 4.96434e-21)
(0.632034 0.0392211 -8.35699e-21)
(0.641041 0.0376567 -6.64134e-21)
(0.418187 0.0694732 -4.47847e-20)
(0.422882 0.0655373 3.11707e-22)
(0.429267 0.0627202 -3.39032e-21)
(0.437014 0.0602571 6.78243e-21)
(0.445045 0.0583215 3.82149e-20)
(0.453433 0.0567524 -3.83778e-20)
(0.462184 0.0553958 4.7833e-21)
(0.471229 0.0541652 -2.49372e-20)
(0.480521 0.0529957 2.79051e-20)
(0.490021 0.0518405 -6.71962e-22)
(0.499692 0.050669 -9.5361e-21)
(0.509503 0.049463 2.76965e-20)
(0.519423 0.0482131 -3.18484e-20)
(0.529428 0.0469166 8.59091e-21)
(0.539493 0.0455752 1.33403e-20)
(0.549598 0.0441938 4.30636e-21)
(0.559723 0.0427796 -1.78976e-20)
(0.56985 0.0413405 1.16343e-20)
(0.579963 0.0398855 -1.47071e-20)
(0.590046 0.0384234 1.98966e-20)
(0.600086 0.0369634 6.84337e-23)
(0.610071 0.0355139 -4.22377e-21)
(0.619991 0.0340833 -1.00006e-20)
(0.373723 0.0636605 2.38988e-20)
(0.38078 0.0595942 5.53621e-20)
(0.389076 0.056744 -3.20329e-20)
(0.398376 0.0543304 -9.31094e-21)
(0.407829 0.0524311 1.42619e-20)
(0.417524 0.0508964 -2.26684e-21)
(0.427491 0.0495822 1.86907e-20)
(0.437687 0.0484037 -1.6267e-20)
(0.448085 0.0472982 -1.18519e-20)
(0.458658 0.0462198 2.2383e-20)
(0.46938 0.0451379 -9.96933e-21)
(0.480221 0.0440336 -1.35613e-20)
(0.491157 0.0428964 1.9025e-20)
(0.502163 0.041722 -1.17498e-20)
(0.513214 0.040511 -1.05322e-21)
(0.52429 0.039267 4.34578e-21)
(0.535369 0.0379955 1.83071e-20)
(0.546432 0.0367036 -2.56972e-20)
(0.557462 0.0353988 8.83604e-21)
(0.568443 0.0340889 -8.05968e-21)
(0.579359 0.0327818 6.48759e-21)
(0.590199 0.0314851 1.23214e-21)
(0.60095 0.0302062 -3.17641e-21)
(0.334198 0.0564326 -2.71415e-20)
(0.343437 0.0524942 -5.34023e-21)
(0.353464 0.0497795 -4.69034e-20)
(0.364159 0.0475341 1.98289e-20)
(0.374891 0.0457651 -8.48834e-21)
(0.385761 0.0443379 5.18e-20)
(0.396816 0.0431232 -3.36826e-20)
(0.408041 0.0420423 -6.49877e-21)
(0.419424 0.0410377 3.98772e-20)
(0.430951 0.0400672 -1.00558e-20)
(0.442602 0.0391018 -1.59511e-20)
(0.454357 0.0381232 2.81732e-22)
(0.46619 0.0371207 1.53138e-20)
(0.47808 0.0360895 -5.12541e-21)
(0.490004 0.035029 4.80377e-21)
(0.501938 0.0339418 -1.40296e-20)
(0.513861 0.0328322 1.07039e-20)
(0.525754 0.031706 -2.06899e-21)
(0.537597 0.0305696 -9.56848e-21)
(0.549373 0.0294296 -1.18365e-21)
(0.561067 0.0282928 4.23719e-21)
(0.572664 0.0271656 -4.13227e-22)
(0.584154 0.0260544 1.50945e-21)
(0.300254 0.047957 3.87635e-20)
(0.311424 0.0443822 -3.30633e-20)
(0.322955 0.0419511 -1.65155e-20)
(0.334855 0.0399753 2.32542e-20)
(0.346694 0.0384174 3.11828e-20)
(0.35858 0.0371613 -1.84554e-20)
(0.370576 0.0360964 -3.58388e-20)
(0.382688 0.0351536 2.05169e-20)
(0.394919 0.0342832 -4.42599e-21)
(0.407265 0.0334483 8.30851e-21)
(0.419714 0.0326233 -1.16925e-20)
(0.432249 0.0317917 1.63056e-20)
(0.444851 0.0309434 -2.3305e-21)
(0.457497 0.0300736 -3.66205e-21)
(0.470166 0.0291812 4.78663e-21)
(0.482834 0.0282677 -7.14567e-21)
(0.49548 0.0273366 2.42201e-21)
(0.508083 0.0263923 -3.71147e-21)
(0.520623 0.0254402 -3.25297e-21)
(0.533081 0.0244855 4.06639e-21)
(0.545442 0.023534 9.93772e-23)
(0.55769 0.0225909 8.10138e-22)
(0.569813 0.0216615 -2.68862e-22)
(0.272434 0.0384279 3.66365e-20)
(0.285222 0.0354213 -8.63562e-21)
(0.297996 0.0333983 9.92497e-21)
(0.310887 0.0317755 -9.09908e-21)
(0.323636 0.030495 -1.0632e-20)
(0.336359 0.0294628 1.39788e-20)
(0.34913 0.0285898 -2.40119e-20)
(0.361972 0.0278196 8.04922e-21)
(0.374899 0.0271118 5.11563e-21)
(0.387917 0.0264364 -1.44589e-21)
(0.401019 0.0257724 -2.33905e-21)
(0.414193 0.0251059 -2.38339e-22)
(0.427422 0.0244283 1.02641e-20)
(0.440687 0.0237353 -3.48014e-21)
(0.453964 0.0230255 5.00408e-21)
(0.467233 0.0223 -5.71651e-21)
(0.48047 0.0215611 1.52357e-21)
(0.493654 0.0208123 2.87467e-21)
(0.506764 0.0200577 -7.04949e-21)
(0.519781 0.0193014 3.18326e-21)
(0.532687 0.0185478 -4.46395e-21)
(0.545468 0.0178012 1.92522e-21)
(0.558111 0.0170655 2.82574e-21)
(0.251179 0.0280599 1.51735e-20)
(0.265225 0.0257882 -4.18729e-21)
(0.278952 0.0242718 -1.9794e-21)
(0.292601 0.0230666 9.82822e-22)
(0.306047 0.0221152 1.79221e-20)
(0.319412 0.0213483 -1.8688e-20)
(0.332776 0.0207007 6.20362e-21)
(0.346177 0.0201305 2.2203e-21)
(0.359638 0.0196081 -8.49532e-21)
(0.373169 0.0191115 1.4188e-20)
(0.38677 0.018625 -4.17626e-22)
(0.400431 0.0181382 -1.28335e-20)
(0.414139 0.0176445 1.07456e-20)
(0.427875 0.0171406 -9.36981e-21)
(0.441617 0.0166251 -3.47743e-21)
(0.455344 0.0160987 9.21712e-21)
(0.469032 0.015563 -3.36468e-21)
(0.482659 0.0150205 -2.87818e-22)
(0.496204 0.0144738 -3.15893e-22)
(0.509647 0.0139261 1.84108e-21)
(0.52297 0.0133805 1.09039e-22)
(0.536158 0.0128401 3.78235e-22)
(0.549197 0.0123077 1.23067e-21)
(0.236823 0.0170824 4.33749e-21)
(0.251728 0.0156689 -2.22059e-21)
(0.266101 0.0147303 -5.88553e-21)
(0.280261 0.0139889 1.61822e-21)
(0.294179 0.0134034 1.03937e-20)
(0.307978 0.0129314 -1.2001e-20)
(0.321744 0.0125331 4.30093e-21)
(0.335524 0.0121829 5.66641e-21)
(0.349345 0.0118627 -6.69128e-21)
(0.363223 0.011559 -1.00834e-21)
(0.377161 0.0112621 5.48706e-21)
(0.391151 0.0109657 -3.92267e-22)
(0.405182 0.0106656 -4.62167e-21)
(0.419236 0.0103596 3.30932e-21)
(0.433291 0.010047 4.24564e-22)
(0.447327 0.00972786 -1.81715e-21)
(0.461318 0.00940325 5.54806e-22)
(0.475245 0.00907457 3.26982e-21)
(0.489083 0.00874351 -2.70887e-21)
(0.502814 0.0084119 1.36847e-21)
(0.516419 0.00808161 7.8163e-22)
(0.529882 0.00775447 -1.73313e-21)
(0.543189 0.00743225 -1.88598e-21)
(0.229589 0.00573535 -3.42682e-21)
(0.244929 0.00525564 1.13621e-21)
(0.259628 0.004938 -2.20399e-21)
(0.274046 0.0046878 1.2112e-21)
(0.288202 0.00449019 2.57135e-21)
(0.302219 0.0043309 -1.96874e-21)
(0.316189 0.00419653 -1.57229e-21)
(0.330159 0.00407846 1.93464e-21)
(0.344163 0.00397059 -1.60506e-21)
(0.358216 0.00386838 7.15757e-22)
(0.372323 0.00376861 1.90053e-21)
(0.386479 0.00366908 -9.70115e-22)
(0.400673 0.00356839 7.50204e-22)
(0.414887 0.0034658 -1.58973e-21)
(0.4291 0.00336101 -2.94638e-22)
(0.44329 0.0032541 9.82505e-24)
(0.457435 0.00314537 3.03355e-23)
(0.471512 0.00303529 1.92699e-22)
(0.485499 0.00292442 -7.37149e-25)
(0.499375 0.00281338 4.68568e-22)
(0.513122 0.00270279 -3.77451e-22)
(0.526723 0.00259326 -2.49409e-22)
(0.540165 0.00248538 1.94488e-22)
)
;

boundaryField
{
    inlet
    {
        type            uniformFixedValue;
        uniformValue    constant (1 0 0);
        value           nonuniform 0();
    }
    outlet
    {
        type            pressureInletOutletVelocity;
        value           nonuniform 0();
    }
    cylinder
    {
        type            fixedValue;
        value           nonuniform 0();
    }
    top
    {
        type            symmetryPlane;
    }
    bottom
    {
        type            symmetryPlane;
    }
    defaultFaces
    {
        type            empty;
    }
    procBoundary6to2
    {
        type            processor;
        value           nonuniform List<vector> 
30
(
(1.20762 -0.01031 1.02157e-19)
(1.2175 -0.0161898 -1.05682e-19)
(1.2175 -0.0161898 -1.05682e-19)
(1.22276 -0.0215908 -1.70261e-20)
(1.22276 -0.0215908 -1.70261e-20)
(1.18716 0.013918 0)
(1.1744 0.0223793 0)
(1.16208 0.0294562 0)
(1.15024 0.0353219 0)
(1.13897 0.0401694 0)
(1.12828 0.0441429 0)
(1.11815 0.0473611 0)
(1.10856 0.0499221 0)
(1.09948 0.0519078 0)
(1.09088 0.0533873 0)
(1.08273 0.0544201 0)
(1.07501 0.055058 0)
(1.06769 0.0553469 0)
(1.06075 0.0553283 0)
(1.05417 0.0550401 0)
(1.04794 0.0545176 0)
(1.04203 0.0537937 0)
(1.03643 0.0528996 0)
(1.03114 0.0518648 0)
(1.02613 0.050717 0)
(1.02139 0.0494827 0)
(1.01693 0.0481868 0)
(1.19263 -0.00313292 0)
(1.18341 0.00923529 0)
(1.18341 0.00923529 0)
)
;
    }
    procBoundary6to3
    {
        type            processor;
        value           uniform (0.998087 0.0476938 0);
    }
    procBoundary6to5
    {
        type            processor;
        value           nonuniform List<vector> 
28
(
(1.15726 -4.4601e-05 2.07312e-19)
(1.12225 0.00733372 -2.50445e-19)
(1.12225 0.00733372 -2.50445e-19)
(1.01458 0.0374525 6.75115e-19)
(0.96601 0.0516118 -8.45817e-19)
(0.96601 0.0516118 -8.45817e-19)
(0.819772 0.0699245 1.20956e-19)
(0.767122 0.0785247 -1.88059e-19)
(0.71347 0.0856458 4.18265e-19)
(0.659315 0.0911856 -1.93991e-19)
(0.659315 0.0911856 -1.93991e-19)
(0.507248 0.0955821 -7.57417e-19)
(0.458526 0.0957924 2.92335e-19)
(0.411532 0.0945644 -3.63417e-19)
(0.366654 0.0919863 3.07626e-19)
(0.32425 0.0881572 -2.44756e-20)
(0.284651 0.0831827 2.6911e-20)
(0.284651 0.0831827 2.6911e-20)
(0.189061 0.0677395 1.37493e-19)
(0.161728 0.0611108 -3.74616e-19)
(0.137515 0.0539584 -2.34736e-20)
(0.116543 0.0463655 3.28015e-19)
(0.0989137 0.0384104 -2.96863e-19)
(0.0847101 0.0301662 7.55649e-21)
(0.0739992 0.0217017 1.27052e-19)
(0.066831 0.0130824 -1.74302e-20)
(1.23017 -0.0268518 4.11445e-20)
(1.22016 -0.0225999 1.60442e-19)
)
;
    }
    procBoundary6to7
    {
        type            processor;
        value           nonuniform List<vector> 
25
(
(0.983769 0.048422 0)
(0.969808 0.0490447 0)
(0.95624 0.0495727 0)
(0.943091 0.0500152 0)
(0.925456 0.050484 -1.46848e-20)
(0.901325 0.0505529 -1.58131e-20)
(0.87657 0.0503087 -6.06314e-22)
(0.851359 0.0498129 6.98224e-21)
(0.825879 0.0490342 -1.24707e-20)
(0.800336 0.0479464 9.69649e-21)
(0.774952 0.0465383 -8.37841e-21)
(0.745001 0.0466424 6.59575e-21)
(0.745001 0.0466424 6.59575e-21)
(0.719619 0.0445227 1.7213e-21)
(0.695149 0.042057 7.28265e-21)
(0.671856 0.0392521 -2.83154e-21)
(0.65 0.0361204 -8.71976e-21)
(0.629837 0.0326794 -3.44066e-21)
(0.611605 0.0289518 3.02671e-21)
(0.595526 0.0249649 -2.7781e-21)
(0.581802 0.0207507 -1.88054e-21)
(0.570604 0.0163448 1.36618e-21)
(0.562076 0.0117862 3.5784e-21)
(0.556328 0.00711664 -2.57661e-21)
(0.553436 0.00237972 -4.84885e-22)
)
;
    }
    procBoundary6to10
    {
        type            processor;
        value           nonuniform List<vector> 
28
(
(0.164399 -0.00636192 -1.01365e-20)
(0.204204 -0.00682901 7.63605e-21)
(0.094067 0.00517877 3.40414e-20)
(0.128803 0.00590051 4.85343e-21)
(0.128803 0.00590051 4.85343e-21)
(0.229589 -0.00573532 3.12412e-21)
(0.244929 -0.00525561 -1.66617e-21)
(0.259628 -0.00493796 1.83173e-21)
(0.274046 -0.00468776 -1.52382e-21)
(0.288202 -0.00449015 -2.71305e-21)
(0.302219 -0.00433085 2.07672e-21)
(0.316189 -0.00419647 1.44919e-21)
(0.330159 -0.0040784 -1.69863e-21)
(0.344163 -0.00397053 1.64872e-21)
(0.358216 -0.00386831 -7.79003e-22)
(0.372323 -0.00376853 -1.83791e-21)
(0.386479 -0.003669 9.65016e-22)
(0.400673 -0.00356831 -9.38913e-22)
(0.414887 -0.00346572 1.73612e-21)
(0.4291 -0.00336093 -7.41903e-23)
(0.44329 -0.00325402 -1.37478e-22)
(0.457435 -0.00314529 -2.45329e-22)
(0.471512 -0.00303521 1.26268e-22)
(0.485499 -0.00292435 -3.81783e-23)
(0.499375 -0.00281332 -4.9343e-22)
(0.513122 -0.00270274 5.52535e-22)
(0.526723 -0.00259323 1.08148e-22)
(0.540165 -0.00248538 -5.09471e-23)
)
;
    }
}


// ************************************************************************* //
