/*--------------------------------*- C++ -*----------------------------------*\
  =========                 |
  \\      /  F ield         | OpenFOAM: The Open Source CFD Toolbox
   \\    /   O peration     | Website:  https://openfoam.org
    \\  /    A nd           | Version:  7
     \\/     M anipulation  |
\*---------------------------------------------------------------------------*/
FoamFile
{
    version     2.0;
    format      ascii;
    class       volScalarField;
    location    "5";
    object      p;
}
// * * * * * * * * * * * * * * * * * * * * * * * * * * * * * * * * * * * * * //

dimensions      [0 2 -2 0 0 0 0];

internalField   nonuniform List<scalar> 
42000
(
-0.416617
-0.416273
-0.405902
-0.391129
-0.373864
-0.353477
-0.332348
-0.30969
-0.286881
-0.263555
-0.240482
-0.217364
-0.194966
-0.172434
-0.151559
-0.129406
-0.111454
-0.0885441
-0.0763276
-0.0511779
-0.416908
-0.416447
-0.406066
-0.391246
-0.373972
-0.353568
-0.332434
-0.309771
-0.286963
-0.263639
-0.240571
-0.217459
-0.195073
-0.172552
-0.151695
-0.129552
-0.111639
-0.0887039
-0.0766121
-0.0512366
-0.417488
-0.416796
-0.406392
-0.39148
-0.374188
-0.353748
-0.332606
-0.309932
-0.287125
-0.263805
-0.240748
-0.21765
-0.195285
-0.172786
-0.151966
-0.129842
-0.112006
-0.089021
-0.0771748
-0.0513536
-0.418358
-0.417317
-0.406882
-0.39183
-0.374511
-0.354017
-0.332863
-0.310174
-0.287369
-0.264054
-0.241013
-0.217935
-0.1956
-0.173134
-0.152368
-0.130272
-0.11255
-0.0894906
-0.0780035
-0.0515287
-0.419513
-0.418011
-0.407532
-0.392296
-0.37494
-0.354375
-0.333204
-0.310495
-0.287691
-0.264384
-0.241362
-0.218312
-0.196017
-0.173593
-0.152898
-0.130836
-0.113261
-0.0901056
-0.0790806
-0.0517616
-0.420952
-0.418874
-0.408342
-0.392875
-0.375473
-0.35482
-0.333627
-0.310892
-0.288091
-0.264792
-0.241795
-0.218777
-0.196531
-0.174158
-0.153548
-0.131529
-0.114129
-0.0908569
-0.0803837
-0.0520518
-0.42267
-0.419906
-0.409309
-0.393566
-0.37611
-0.355349
-0.334131
-0.311366
-0.288567
-0.265277
-0.242308
-0.219328
-0.197138
-0.174824
-0.154312
-0.13234
-0.11514
-0.0917336
-0.0818861
-0.0523989
-0.424664
-0.421102
-0.41043
-0.394367
-0.376847
-0.355963
-0.334714
-0.311912
-0.289115
-0.265836
-0.242898
-0.21996
-0.197833
-0.175584
-0.15518
-0.133261
-0.116279
-0.0927233
-0.0835579
-0.0528024
-0.426927
-0.422461
-0.411703
-0.395277
-0.377683
-0.356657
-0.335373
-0.31253
-0.289734
-0.266465
-0.243561
-0.220669
-0.19861
-0.176432
-0.156143
-0.134281
-0.11753
-0.0938124
-0.0853672
-0.0532617
-0.429455
-0.42398
-0.413124
-0.396291
-0.378614
-0.35743
-0.336107
-0.313215
-0.29042
-0.267161
-0.244293
-0.221449
-0.199463
-0.177359
-0.157191
-0.135386
-0.118874
-0.0949865
-0.0872808
-0.0537764
-0.432241
-0.425653
-0.414691
-0.397407
-0.379639
-0.358279
-0.336911
-0.313965
-0.291169
-0.267919
-0.245088
-0.222295
-0.200383
-0.178357
-0.158312
-0.136566
-0.120293
-0.0962307
-0.0892651
-0.0543459
-0.435278
-0.427478
-0.416398
-0.398623
-0.380754
-0.359201
-0.337783
-0.314778
-0.291979
-0.268737
-0.245943
-0.223201
-0.201364
-0.179417
-0.159494
-0.137806
-0.121768
-0.0975297
-0.0912871
-0.0549695
-0.438559
-0.429449
-0.418241
-0.399934
-0.381955
-0.360193
-0.33872
-0.315648
-0.292844
-0.269609
-0.246852
-0.224161
-0.202399
-0.180529
-0.160725
-0.139094
-0.12328
-0.0988684
-0.0933154
-0.0556465
-0.442079
-0.43156
-0.420217
-0.401338
-0.38324
-0.361252
-0.339718
-0.316573
-0.293762
-0.27053
-0.247808
-0.225167
-0.203477
-0.181682
-0.161992
-0.140415
-0.124809
-0.100232
-0.0953205
-0.0563758
-0.445834
-0.433802
-0.422319
-0.402831
-0.384605
-0.362374
-0.340774
-0.317549
-0.294727
-0.271496
-0.248807
-0.226212
-0.204591
-0.182868
-0.163283
-0.141755
-0.126339
-0.101606
-0.0972753
-0.057156
-0.449786
-0.436193
-0.424544
-0.404409
-0.386045
-0.363556
-0.341884
-0.318572
-0.295736
-0.272501
-0.249842
-0.22729
-0.205733
-0.184076
-0.164585
-0.143102
-0.127851
-0.102976
-0.0991558
-0.0579852
-0.453953
-0.438705
-0.426885
-0.406067
-0.387557
-0.364795
-0.343044
-0.319639
-0.296784
-0.27354
-0.250907
-0.228393
-0.206892
-0.185294
-0.165886
-0.144443
-0.129329
-0.104331
-0.100941
-0.0588611
-0.458322
-0.441336
-0.429338
-0.407803
-0.389138
-0.366086
-0.344251
-0.320744
-0.297865
-0.274609
-0.251995
-0.229512
-0.20806
-0.186514
-0.167173
-0.145763
-0.130758
-0.105657
-0.102614
-0.0597806
-0.462881
-0.444081
-0.431896
-0.409611
-0.390782
-0.367426
-0.345501
-0.321883
-0.298977
-0.2757
-0.253099
-0.230642
-0.209227
-0.187724
-0.168434
-0.147053
-0.132125
-0.106945
-0.10416
-0.0607401
-0.467619
-0.446935
-0.434555
-0.411487
-0.392486
-0.368811
-0.346789
-0.323054
-0.300112
-0.276809
-0.254214
-0.231773
-0.210385
-0.188914
-0.169658
-0.148299
-0.133417
-0.108183
-0.105568
-0.0617351
-0.472526
-0.449892
-0.437308
-0.413428
-0.394247
-0.370238
-0.348112
-0.32425
-0.301267
-0.27793
-0.255332
-0.232897
-0.211524
-0.190075
-0.170834
-0.149492
-0.134623
-0.109364
-0.106829
-0.0627605
-0.477589
-0.452945
-0.440149
-0.415429
-0.396058
-0.371703
-0.349466
-0.325469
-0.302437
-0.279056
-0.256446
-0.234007
-0.212636
-0.191195
-0.171951
-0.15062
-0.135733
-0.11048
-0.10794
-0.0638105
-0.4828
-0.456088
-0.443072
-0.417485
-0.397918
-0.373201
-0.350846
-0.326705
-0.303616
-0.280183
-0.25755
-0.235095
-0.213711
-0.192267
-0.173001
-0.151676
-0.13674
-0.111523
-0.108897
-0.0648788
-0.488146
-0.459314
-0.446071
-0.419593
-0.399821
-0.37473
-0.352249
-0.327954
-0.304799
-0.281304
-0.258636
-0.236153
-0.214741
-0.19328
-0.173972
-0.15265
-0.137636
-0.11249
-0.109699
-0.0659585
-0.493616
-0.462616
-0.44914
-0.421747
-0.401763
-0.376286
-0.353671
-0.329212
-0.305982
-0.282412
-0.259697
-0.237172
-0.215716
-0.194226
-0.174858
-0.153535
-0.138417
-0.113375
-0.110348
-0.0670423
-0.499199
-0.465988
-0.452273
-0.423943
-0.403739
-0.377864
-0.355107
-0.330474
-0.307158
-0.283503
-0.260727
-0.238145
-0.216629
-0.195096
-0.17565
-0.154324
-0.139077
-0.114174
-0.110847
-0.0681226
-0.504883
-0.469422
-0.455463
-0.426177
-0.405747
-0.379461
-0.356554
-0.331735
-0.308323
-0.284569
-0.261718
-0.239065
-0.217472
-0.195883
-0.176342
-0.155011
-0.139613
-0.114886
-0.111199
-0.0691918
-0.510657
-0.472912
-0.458703
-0.428445
-0.407781
-0.381073
-0.358007
-0.332991
-0.309471
-0.285604
-0.262662
-0.239923
-0.218237
-0.196578
-0.176926
-0.155591
-0.140023
-0.115507
-0.11141
-0.0702424
-0.516508
-0.47645
-0.461988
-0.430741
-0.409837
-0.382696
-0.359462
-0.334238
-0.310596
-0.286601
-0.263554
-0.240711
-0.218915
-0.197175
-0.177398
-0.15606
-0.140306
-0.116037
-0.111484
-0.0712668
-0.522425
-0.48003
-0.465311
-0.433062
-0.411911
-0.384326
-0.360914
-0.335469
-0.311693
-0.287555
-0.264385
-0.241423
-0.2195
-0.197667
-0.177752
-0.156415
-0.140461
-0.116475
-0.111427
-0.0722578
-0.528397
-0.483644
-0.468665
-0.435402
-0.413999
-0.38596
-0.362359
-0.336681
-0.312755
-0.288459
-0.265149
-0.242051
-0.219985
-0.198048
-0.177984
-0.156651
-0.140488
-0.116821
-0.111243
-0.073209
-0.53441
-0.487285
-0.472043
-0.437757
-0.416095
-0.387592
-0.363793
-0.337868
-0.313777
-0.289305
-0.265838
-0.242587
-0.220364
-0.198312
-0.17809
-0.156767
-0.140387
-0.117075
-0.110936
-0.0741138
-0.540453
-0.490944
-0.47544
-0.440122
-0.418196
-0.389219
-0.36521
-0.339023
-0.314753
-0.290087
-0.266445
-0.243024
-0.220629
-0.198454
-0.178068
-0.15676
-0.14016
-0.11724
-0.110509
-0.0749669
-0.546515
-0.494616
-0.478847
-0.442493
-0.420296
-0.390836
-0.366605
-0.340143
-0.315676
-0.290799
-0.266963
-0.243357
-0.220776
-0.198469
-0.177915
-0.15663
-0.139807
-0.117315
-0.109964
-0.0757652
-0.552582
-0.498292
-0.482259
-0.444864
-0.422391
-0.392438
-0.367974
-0.341221
-0.316539
-0.291433
-0.267385
-0.243578
-0.220798
-0.198354
-0.177628
-0.156376
-0.13933
-0.117304
-0.1093
-0.0765123
-0.558643
-0.501964
-0.485668
-0.44723
-0.424476
-0.394021
-0.36931
-0.34225
-0.317336
-0.291981
-0.267704
-0.24368
-0.220692
-0.198105
-0.177207
-0.155996
-0.138732
-0.117207
-0.108515
-0.0772136
-0.564685
-0.505625
-0.489067
-0.449586
-0.426545
-0.395579
-0.370609
-0.343225
-0.31806
-0.292438
-0.267913
-0.243659
-0.220451
-0.197718
-0.176651
-0.15549
-0.138014
-0.117028
-0.107599
-0.0778445
-0.570696
-0.509266
-0.492448
-0.451926
-0.428593
-0.397107
-0.371863
-0.34414
-0.318703
-0.292795
-0.268006
-0.243507
-0.220073
-0.19719
-0.175959
-0.154858
-0.13718
-0.116769
-0.106519
-0.0783533
-0.576663
-0.51288
-0.495804
-0.454245
-0.430613
-0.398599
-0.373066
-0.344986
-0.31926
-0.293046
-0.267976
-0.24322
-0.219552
-0.19652
-0.175131
-0.154099
-0.136234
-0.116433
-0.105236
-0.0789525
-0.582575
-0.516458
-0.499128
-0.456536
-0.432601
-0.40005
-0.374213
-0.345757
-0.319722
-0.293184
-0.267817
-0.242792
-0.218886
-0.195706
-0.174167
-0.153213
-0.135181
-0.116013
-0.103783
-0.0806529
-0.58842
-0.519995
-0.502415
-0.458797
-0.434551
-0.401454
-0.375296
-0.346447
-0.320082
-0.293201
-0.267522
-0.242219
-0.218072
-0.194745
-0.173068
-0.152199
-0.134025
-0.115491
-0.102343
-0.0843331
-0.59418
-0.523476
-0.50565
-0.461015
-0.436454
-0.402801
-0.376307
-0.347047
-0.320331
-0.293091
-0.267085
-0.241497
-0.217108
-0.193637
-0.171834
-0.151059
-0.132769
-0.114852
-0.100872
-0.0861277
-0.599843
-0.526894
-0.508827
-0.463186
-0.438302
-0.404087
-0.377239
-0.347549
-0.320463
-0.292846
-0.266501
-0.24062
-0.21599
-0.192382
-0.170466
-0.14979
-0.131416
-0.114081
-0.0994368
-0.0869841
-0.605397
-0.530241
-0.511939
-0.465303
-0.44009
-0.405303
-0.378084
-0.347945
-0.32047
-0.292459
-0.265764
-0.239586
-0.214717
-0.190977
-0.168964
-0.148394
-0.129968
-0.113175
-0.0980289
-0.0874455
-0.610828
-0.533508
-0.514976
-0.467358
-0.44181
-0.406442
-0.378833
-0.348227
-0.320344
-0.291924
-0.26487
-0.238391
-0.213288
-0.189425
-0.167329
-0.146871
-0.128426
-0.112135
-0.0966319
-0.0875825
-0.616123
-0.536684
-0.517929
-0.469344
-0.443452
-0.407495
-0.379479
-0.348387
-0.320077
-0.291234
-0.263813
-0.237032
-0.211701
-0.187723
-0.165563
-0.145221
-0.126789
-0.11096
-0.0952315
-0.0874161
-0.621268
-0.53976
-0.520789
-0.471253
-0.44501
-0.408455
-0.380011
-0.348416
-0.319661
-0.290383
-0.262588
-0.235507
-0.209956
-0.185873
-0.163665
-0.143445
-0.125057
-0.109653
-0.093815
-0.086982
-0.626247
-0.542727
-0.523545
-0.473075
-0.446473
-0.409311
-0.380422
-0.348306
-0.319089
-0.289365
-0.261193
-0.233813
-0.208051
-0.183875
-0.161637
-0.141544
-0.123229
-0.108215
-0.0923696
-0.0863131
-0.631047
-0.545573
-0.526187
-0.474802
-0.447832
-0.410055
-0.380702
-0.348047
-0.318353
-0.288174
-0.259622
-0.231949
-0.205988
-0.18173
-0.159479
-0.139519
-0.121303
-0.106648
-0.090883
-0.0854345
-0.635652
-0.548287
-0.528705
-0.476424
-0.449078
-0.410676
-0.38084
-0.347632
-0.317445
-0.286805
-0.257872
-0.229912
-0.203764
-0.179438
-0.157192
-0.13737
-0.119279
-0.104954
-0.0893432
-0.0843656
-0.640048
-0.55086
-0.531087
-0.477932
-0.450199
-0.411166
-0.380828
-0.34705
-0.316359
-0.285251
-0.255941
-0.227702
-0.201381
-0.177001
-0.154777
-0.135098
-0.117154
-0.103134
-0.0877395
-0.0831218
-0.644219
-0.553279
-0.533324
-0.479315
-0.451187
-0.411514
-0.380655
-0.346294
-0.315087
-0.283509
-0.253825
-0.225319
-0.19884
-0.174419
-0.152235
-0.132704
-0.114927
-0.10119
-0.0860619
-0.0817149
-0.64815
-0.555533
-0.535401
-0.480563
-0.452028
-0.411708
-0.380311
-0.345355
-0.313623
-0.281574
-0.251522
-0.22276
-0.196139
-0.171693
-0.149566
-0.130188
-0.112596
-0.0991234
-0.0843017
-0.0801539
-0.651825
-0.55761
-0.537309
-0.481665
-0.452713
-0.411739
-0.379786
-0.344224
-0.311959
-0.279441
-0.24903
-0.220026
-0.193281
-0.168825
-0.146771
-0.127553
-0.11016
-0.0969351
-0.0824508
-0.0784456
-0.655228
-0.559498
-0.539034
-0.482609
-0.45323
-0.411595
-0.379071
-0.342893
-0.31009
-0.277107
-0.246348
-0.217118
-0.190267
-0.165816
-0.14385
-0.124797
-0.107617
-0.0946261
-0.0805022
-0.0765951
-0.658343
-0.561185
-0.540565
-0.483384
-0.453566
-0.411265
-0.378154
-0.341353
-0.30801
-0.274567
-0.243473
-0.214034
-0.187096
-0.162667
-0.140805
-0.121922
-0.104966
-0.092197
-0.0784499
-0.074606
-0.661152
-0.562658
-0.541887
-0.483977
-0.45371
-0.410738
-0.377026
-0.339597
-0.305713
-0.27182
-0.240406
-0.210777
-0.18377
-0.15938
-0.137637
-0.118929
-0.102206
-0.0896484
-0.0762885
-0.0724811
-0.663641
-0.563905
-0.542987
-0.484377
-0.453649
-0.410002
-0.375677
-0.337617
-0.303194
-0.268863
-0.237144
-0.207345
-0.180291
-0.155955
-0.134345
-0.115818
-0.0993359
-0.086981
-0.0740135
-0.0702219
-0.665791
-0.564911
-0.543853
-0.484571
-0.453371
-0.409047
-0.374097
-0.335405
-0.300448
-0.265692
-0.233689
-0.203741
-0.17666
-0.152395
-0.130931
-0.11259
-0.0963547
-0.0841952
-0.0716208
-0.0678298
-0.667585
-0.565665
-0.544471
-0.484546
-0.452863
-0.40786
-0.372277
-0.332955
-0.297471
-0.262307
-0.23004
-0.199965
-0.172879
-0.148701
-0.127396
-0.109247
-0.0932619
-0.0812915
-0.0691074
-0.0653054
-0.669008
-0.566151
-0.544826
-0.484289
-0.452112
-0.406431
-0.370207
-0.33026
-0.294259
-0.258706
-0.226197
-0.196019
-0.168948
-0.144875
-0.123741
-0.105788
-0.0900575
-0.0782705
-0.0664707
-0.0626493
-0.670042
-0.566357
-0.544904
-0.483787
-0.451106
-0.404749
-0.367878
-0.327313
-0.290808
-0.254887
-0.22216
-0.191904
-0.16487
-0.140918
-0.119968
-0.102216
-0.0867413
-0.0751328
-0.0637087
-0.0598618
-0.670669
-0.566269
-0.544692
-0.483026
-0.449831
-0.402802
-0.365282
-0.32411
-0.287116
-0.25085
-0.217931
-0.187622
-0.160647
-0.136831
-0.116076
-0.0985303
-0.0833136
-0.0718792
-0.06082
-0.0569431
-0.670873
-0.565873
-0.544174
-0.481994
-0.448275
-0.40058
-0.36241
-0.320644
-0.283179
-0.246595
-0.213511
-0.183174
-0.15628
-0.132617
-0.112068
-0.0947333
-0.0797749
-0.0685107
-0.0578039
-0.0538936
-0.670637
-0.565155
-0.543336
-0.480676
-0.446426
-0.398072
-0.359254
-0.31691
-0.278996
-0.242121
-0.2089
-0.178563
-0.151772
-0.128278
-0.107945
-0.090826
-0.076126
-0.0650282
-0.0546602
-0.0507138
-0.669943
-0.564101
-0.542164
-0.47906
-0.444271
-0.395268
-0.355808
-0.312905
-0.274565
-0.237428
-0.204101
-0.17379
-0.147123
-0.123814
-0.103709
-0.0868099
-0.0723679
-0.061433
-0.0513893
-0.0474043
-0.668776
-0.562696
-0.540643
-0.477132
-0.441798
-0.392159
-0.352063
-0.308624
-0.269884
-0.232518
-0.199115
-0.168858
-0.142338
-0.119229
-0.0993607
-0.0826866
-0.068502
-0.0577268
-0.0479923
-0.0439661
-0.667118
-0.560928
-0.538759
-0.474879
-0.438995
-0.388735
-0.348015
-0.304065
-0.264954
-0.227392
-0.193944
-0.163769
-0.137417
-0.114525
-0.0949028
-0.0784581
-0.06453
-0.0539112
-0.0444706
-0.0404003
-0.664953
-0.558781
-0.536498
-0.472288
-0.43585
-0.384988
-0.343656
-0.299223
-0.259773
-0.222051
-0.18859
-0.158525
-0.132363
-0.109703
-0.0903369
-0.0741261
-0.0604537
-0.0499882
-0.0408264
-0.0367084
-0.662266
-0.556243
-0.533845
-0.469347
-0.432353
-0.380908
-0.338982
-0.294098
-0.254341
-0.216496
-0.183056
-0.153129
-0.127179
-0.104766
-0.0856653
-0.069693
-0.0562752
-0.0459601
-0.0370623
-0.0328925
-0.65904
-0.5533
-0.530787
-0.466042
-0.428493
-0.376489
-0.333988
-0.288687
-0.24866
-0.210729
-0.177344
-0.147583
-0.121867
-0.0997158
-0.0808901
-0.065161
-0.0519971
-0.0418295
-0.0331817
-0.0289547
-0.655261
-0.549938
-0.52731
-0.462362
-0.424259
-0.371723
-0.32867
-0.28299
-0.242729
-0.204752
-0.171457
-0.141891
-0.11643
-0.0945556
-0.0760137
-0.0605326
-0.047622
-0.0375993
-0.0291881
-0.0248978
-0.650913
-0.546144
-0.523401
-0.458295
-0.419642
-0.366603
-0.323025
-0.277004
-0.236552
-0.198569
-0.165398
-0.136056
-0.11087
-0.0892876
-0.0710388
-0.0558105
-0.0431528
-0.0332724
-0.025086
-0.020725
-0.645983
-0.541905
-0.519047
-0.453829
-0.414632
-0.361124
-0.317049
-0.270732
-0.230128
-0.192182
-0.159169
-0.130079
-0.10519
-0.0839147
-0.0659681
-0.0509975
-0.0385928
-0.0288524
-0.0208798
-0.01644
-0.640457
-0.53721
-0.514236
-0.448955
-0.409222
-0.355281
-0.310741
-0.264172
-0.22346
-0.185593
-0.152774
-0.123965
-0.099394
-0.0784396
-0.0608042
-0.0460966
-0.0339454
-0.024343
-0.0165748
-0.0120468
-0.634321
-0.532045
-0.508955
-0.443661
-0.403404
-0.349068
-0.304099
-0.257326
-0.216552
-0.178806
-0.146217
-0.117717
-0.0934838
-0.0728653
-0.0555503
-0.041111
-0.0292141
-0.019748
-0.0121765
-0.00754997
-0.627565
-0.5264
-0.503193
-0.437938
-0.39717
-0.342482
-0.297123
-0.250196
-0.209405
-0.171824
-0.139501
-0.111337
-0.0874629
-0.0671948
-0.0502094
-0.036044
-0.0244028
-0.0150717
-0.00769062
-0.0029546
-0.620175
-0.520264
-0.49694
-0.431778
-0.390515
-0.33552
-0.289811
-0.242783
-0.202023
-0.164652
-0.132629
-0.10483
-0.0813346
-0.0614312
-0.0447847
-0.0308992
-0.0195154
-0.0103185
-0.00312329
0.00173385
-0.612142
-0.513626
-0.490186
-0.425172
-0.383433
-0.32818
-0.282165
-0.23509
-0.19441
-0.157293
-0.125606
-0.0981993
-0.0751022
-0.0555779
-0.0392797
-0.02568
-0.0145561
-0.00549299
0.00151917
0.00650948
-0.603457
-0.506477
-0.482921
-0.418113
-0.37592
-0.32046
-0.274187
-0.22712
-0.186569
-0.14975
-0.118435
-0.0914478
-0.0687691
-0.0496381
-0.0336976
-0.0203902
-0.00952908
-0.000600027
0.00623036
0.011366
-0.594115
-0.498813
-0.475143
-0.410598
-0.367973
-0.312362
-0.265878
-0.218877
-0.178505
-0.14203
-0.11112
-0.0845794
-0.0623386
-0.0436151
-0.0280419
-0.0150335
-0.00443857
0.00435552
0.0110036
0.0162968
-0.584098
-0.490615
-0.466832
-0.402613
-0.359586
-0.30388
-0.257239
-0.210363
-0.170222
-0.134135
-0.103666
-0.0775984
-0.0558147
-0.0375128
-0.0223166
-0.00961418
0.000710725
0.00936852
0.0158318
0.0212948
-0.573401
-0.48188
-0.457987
-0.394157
-0.350758
-0.295019
-0.248274
-0.201584
-0.161724
-0.126071
-0.0960762
-0.0705086
-0.0492011
-0.0313349
-0.0165254
-0.00413615
0.00591433
0.0144341
0.020708
0.0263529
-0.562022
-0.472601
-0.448603
-0.385227
-0.341489
-0.285779
-0.238987
-0.192545
-0.153018
-0.117842
-0.0883564
-0.0633142
-0.0425016
-0.0250849
-0.0106719
0.00139682
0.0111674
0.0195458
0.025627
0.031463
-0.549955
-0.462774
-0.438675
-0.375819
-0.331778
-0.276164
-0.229382
-0.18325
-0.144109
-0.109454
-0.0805106
-0.0560192
-0.03572
-0.0187667
-0.00476008
0.00698071
0.0164652
0.0246983
0.0305817
0.0366177
-0.537197
-0.452393
-0.428198
-0.365931
-0.321626
-0.266177
-0.219465
-0.173706
-0.135002
-0.100913
-0.0725437
-0.0486281
-0.0288603
-0.012384
0.00120607
0.0126093
0.0218047
0.0298866
0.0355654
0.0418089
-0.523745
-0.441455
-0.417171
-0.355563
-0.311036
-0.255821
-0.209241
-0.163918
-0.125704
-0.0922224
-0.0644604
-0.0411451
-0.0219267
-0.00594055
0.00722185
0.0182805
0.0271799
0.0351055
0.0405719
0.0470287
-0.509599
-0.429956
-0.40559
-0.344713
-0.300009
-0.245101
-0.198716
-0.153893
-0.11622
-0.0833892
-0.0562658
-0.0335748
-0.0149231
0.000558168
0.0132849
0.0239895
0.0325863
0.0403492
0.045595
0.052269
-0.494758
-0.417894
-0.393457
-0.333384
-0.28855
-0.234022
-0.187896
-0.143638
-0.106556
-0.0744187
-0.047965
-0.0259216
-0.00785416
0.00710953
0.0193901
0.0297318
0.0380194
0.0456126
0.0506291
0.0575216
-0.479225
-0.40527
-0.38077
-0.321578
-0.276663
-0.222592
-0.176789
-0.133161
-0.0967209
-0.0653171
-0.0395631
-0.0181905
-0.000723816
0.0137091
0.0255332
0.0355033
0.0434749
0.0508903
0.0556686
0.0627784
-0.463001
-0.392083
-0.367533
-0.309296
-0.264354
-0.210817
-0.165403
-0.122468
-0.0867201
-0.0560901
-0.0310656
-0.010386
0.00646349
0.0203527
0.0317105
0.0412998
0.0489482
0.0561771
0.0607082
0.0680313
-0.446092
-0.378335
-0.353748
-0.296545
-0.251629
-0.198704
-0.153746
-0.111567
-0.0765609
-0.0467442
-0.022478
-0.00251287
0.0137033
0.0270361
0.0379176
0.0471169
0.054435
0.0614679
0.065743
0.0732725
-0.428502
-0.364028
-0.339418
-0.283328
-0.238495
-0.186263
-0.141827
-0.100467
-0.0662508
-0.0372859
-0.0138055
0.00542383
0.0209911
0.033755
0.0441505
0.0529505
0.0599311
0.0667579
0.0707683
0.0784943
-0.41024
-0.349167
-0.324551
-0.269653
-0.224962
-0.173502
-0.129655
-0.0891764
-0.0557973
-0.0277216
-0.00505393
0.0134191
0.0283224
0.0405052
0.0504052
0.0587965
0.0654323
0.0720421
0.0757799
0.0836891
-0.391313
-0.333757
-0.309151
-0.255527
-0.211037
-0.160431
-0.117239
-0.0777037
-0.0452082
-0.0180578
0.00377085
0.021468
0.0356925
0.0472825
0.0566774
0.0646507
0.0709345
0.077316
0.0807736
0.0888499
-0.371731
-0.317804
-0.293227
-0.240958
-0.196732
-0.14706
-0.10459
-0.0660581
-0.0344913
-0.00830134
0.012663
0.0295653
0.0430969
0.0540824
0.0629631
0.0705092
0.0764339
0.0825752
0.0857459
0.0939697
-0.351506
-0.301315
-0.276789
-0.225956
-0.182058
-0.1334
-0.0917192
-0.0542491
-0.0236549
0.00154077
0.0216167
0.0377057
0.0505308
0.0609007
0.0692582
0.076368
0.0819265
0.0878154
0.0906932
0.0990422
-0.330651
-0.284301
-0.259846
-0.210531
-0.167026
-0.119464
-0.0786362
-0.0422863
-0.0127072
0.0114615
0.0306257
0.0458841
0.0579895
0.0677331
0.0755588
0.0822231
0.0874087
0.0930326
0.0956124
0.104061
-0.309179
-0.26677
-0.24241
-0.194696
-0.151649
-0.105263
-0.065353
-0.0301795
-0.00165678
0.0214538
0.0396841
0.054095
0.0654683
0.0745752
0.0818607
0.0880707
0.0928769
0.098223
0.100501
0.109021
-0.287107
-0.248735
-0.224495
-0.178463
-0.135941
-0.0908092
-0.0518811
-0.0179388
0.00948785
0.0315103
0.0487855
0.0623331
0.0729623
0.0814227
0.0881599
0.0939071
0.0983276
0.103383
0.105356
0.113918
-0.264452
-0.230208
-0.206113
-0.161846
-0.119918
-0.0761158
-0.0382328
-0.00557468
0.0207179
0.0416236
0.0579236
0.0705929
0.0804668
0.0882712
0.0944526
0.0997287
0.103757
0.108509
0.110175
0.118745
-0.241232
-0.211204
-0.187281
-0.14486
-0.103588
-0.0612006
-0.0244204
0.00690242
0.0320243
0.0517863
0.0670921
0.0788689
0.0879768
0.0951165
0.100735
0.105532
0.109163
0.113598
0.114956
0.123499
-0.217467
-0.191737
-0.168014
-0.12752
-0.0869737
-0.0460739
-0.0104566
0.0194817
0.0433982
0.0619907
0.0762845
0.0871555
0.0954876
0.101954
0.107003
0.111313
0.114542
0.118646
0.119697
0.128177
-0.193179
-0.171824
-0.148335
-0.10984
-0.0700897
-0.0307508
0.00364543
0.0321522
0.0548302
0.0722292
0.0854942
0.0954471
0.102994
0.10878
0.113252
0.117068
0.11989
0.123652
0.124398
0.132775
-0.168391
-0.151483
-0.128265
-0.0918337
-0.0529527
-0.015247
0.0178725
0.0449028
0.0663111
0.082494
0.0947148
0.103738
0.110492
0.11559
0.11948
0.122795
0.125205
0.128612
0.129055
0.137291
-0.143126
-0.130735
-0.107796
-0.0735432
-0.0355805
0.000421902
0.0322111
0.0577223
0.0778315
0.0927772
0.103939
0.112023
0.117975
0.122378
0.125681
0.12849
0.130485
0.133523
0.133668
0.141721
-0.117411
-0.109601
-0.0869732
-0.0549649
-0.0179914
0.01624
0.0466473
0.0705991
0.0893817
0.103071
0.113162
0.120295
0.125439
0.129143
0.131853
0.134149
0.135725
0.138384
0.138237
0.146064
-0.0912694
-0.0880916
-0.0658273
-0.0361218
-0.00020437
0.032191
0.0611673
0.0835218
0.100952
0.113367
0.122374
0.12855
0.13288
0.135878
0.137992
0.13977
0.140924
0.143192
0.142759
0.150318
-0.0647281
-0.0662431
-0.044367
-0.017037
0.0177613
0.0482583
0.0757567
0.0964785
0.112533
0.123658
0.131571
0.136782
0.140291
0.142579
0.144093
0.145349
0.14608
0.147946
0.147235
0.154481
-0.0378253
-0.0440703
-0.0226175
0.00226803
0.0358856
0.0644249
0.0904012
0.109457
0.124115
0.133935
0.140745
0.144983
0.147668
0.149243
0.150154
0.150883
0.151189
0.152642
0.151664
0.158553
-0.0105869
-0.0215993
-0.000604973
0.0217713
0.0541484
0.0806738
0.105086
0.122447
0.135687
0.14419
0.149889
0.15315
0.155007
0.155865
0.15617
0.15637
0.156249
0.15728
0.156046
0.162531
0.0169586
0.00114196
0.0216446
0.0414501
0.072529
0.0969874
0.119797
0.135434
0.147241
0.154415
0.158996
0.161276
0.162302
0.162441
0.162139
0.161806
0.161258
0.161857
0.160381
0.166415
0.0447779
0.0241275
0.044105
0.0612812
0.0910062
0.113348
0.134519
0.148408
0.158765
0.164601
0.168059
0.169355
0.169547
0.168967
0.168056
0.167188
0.166213
0.166372
0.164669
0.170203
0.0728372
0.0473302
0.0667488
0.0812409
0.109559
0.129738
0.149237
0.161356
0.17025
0.174741
0.177072
0.17738
0.176739
0.175438
0.173917
0.172514
0.171112
0.170824
0.168913
0.173894
0.101102
0.0707216
0.0895482
0.101305
0.128165
0.146139
0.163936
0.174266
0.181686
0.184826
0.186027
0.185348
0.183872
0.18185
0.17972
0.177781
0.175953
0.17521
0.173111
0.177486
0.129537
0.0942726
0.112474
0.121448
0.146802
0.162534
0.1786
0.187125
0.193063
0.194847
0.194917
0.193251
0.190942
0.188199
0.185461
0.182986
0.180734
0.17953
0.177266
0.180975
0.158107
0.117953
0.135498
0.141646
0.165449
0.178903
0.193216
0.199921
0.20437
0.204797
0.203736
0.201083
0.197942
0.194481
0.191136
0.188125
0.185451
0.183781
0.181383
0.184371
0.186776
0.141734
0.158591
0.161872
0.184083
0.195229
0.207767
0.212643
0.215598
0.214667
0.212476
0.208839
0.204869
0.200692
0.196741
0.193198
0.190102
0.187964
0.185477
0.187695
0.215506
0.165582
0.181721
0.182102
0.202682
0.211492
0.222239
0.225277
0.226735
0.224449
0.221131
0.216513
0.211717
0.206827
0.202274
0.1982
0.194684
0.192078
0.189575
0.190884
0.244252
0.189463
0.204856
0.202308
0.221222
0.227676
0.236616
0.237812
0.237774
0.234134
0.229693
0.2241
0.218482
0.212883
0.20773
0.203129
0.199193
0.196127
0.193645
0.193583
0.27296
0.213337
0.227962
0.222463
0.23968
0.24376
0.250883
0.250235
0.248702
0.243713
0.238156
0.231592
0.225158
0.218855
0.213106
0.207981
0.203627
0.200108
0.197566
0.19545
0.301636
0.237192
0.251019
0.242545
0.258036
0.259728
0.265026
0.262534
0.259511
0.25318
0.246512
0.238986
0.231741
0.22474
0.218399
0.212755
0.207983
0.204017
0.201426
0.197943
0.330226
0.260989
0.27399
0.262525
0.276266
0.27556
0.279028
0.274697
0.270189
0.262526
0.254755
0.246274
0.238226
0.230532
0.223606
0.217447
0.212257
0.207852
0.205153
0.200814
0.358682
0.284689
0.296843
0.282377
0.294347
0.291239
0.292875
0.286712
0.280728
0.271741
0.262879
0.253451
0.244608
0.23623
0.228722
0.222055
0.216448
0.211614
0.208739
0.203728
0.386965
0.308259
0.319546
0.302073
0.312256
0.306745
0.306552
0.298567
0.291118
0.280819
0.270876
0.260512
0.250883
0.241827
0.233746
0.226576
0.220554
0.215302
0.212206
0.20662
0.415036
0.331666
0.342067
0.321589
0.329972
0.322062
0.320045
0.310249
0.301348
0.289752
0.278739
0.267451
0.257045
0.247321
0.238673
0.231007
0.224572
0.218915
0.215562
0.209499
0.442854
0.354875
0.364373
0.340896
0.347471
0.337171
0.333339
0.321748
0.311409
0.298531
0.286463
0.274262
0.263091
0.252708
0.2435
0.235346
0.2285
0.222449
0.218816
0.212355
0.47038
0.377853
0.386435
0.359969
0.364731
0.352054
0.346419
0.333052
0.321292
0.307148
0.294039
0.28094
0.269015
0.257984
0.248224
0.23959
0.232337
0.225905
0.221969
0.215177
0.497574
0.400565
0.408219
0.378782
0.381731
0.366694
0.359271
0.344149
0.330986
0.315596
0.301463
0.28748
0.274814
0.263145
0.252843
0.243737
0.236082
0.229279
0.225028
0.217957
0.524396
0.422979
0.429695
0.397308
0.398449
0.381074
0.371882
0.355027
0.340484
0.323868
0.308728
0.293876
0.280482
0.268187
0.257353
0.247784
0.239732
0.232571
0.227993
0.220688
0.550806
0.445059
0.450831
0.415523
0.414863
0.395176
0.384236
0.365677
0.349775
0.331955
0.315827
0.300124
0.286015
0.273107
0.261751
0.251729
0.243286
0.235778
0.230869
0.223365
0.576766
0.466773
0.471597
0.433402
0.430953
0.408984
0.396322
0.376086
0.358851
0.33985
0.322755
0.306217
0.29141
0.277901
0.266034
0.25557
0.246743
0.238898
0.233655
0.225982
0.602238
0.488088
0.491962
0.450918
0.446697
0.422482
0.408125
0.386244
0.367703
0.347546
0.329504
0.312152
0.296661
0.282566
0.2702
0.259303
0.2501
0.241931
0.236355
0.228537
0.627182
0.50897
0.511896
0.468049
0.462076
0.435653
0.419632
0.396141
0.376322
0.355036
0.33607
0.317922
0.301765
0.287099
0.274245
0.262928
0.253356
0.244874
0.238967
0.231024
0.651561
0.529388
0.53137
0.484769
0.47707
0.448481
0.43083
0.405766
0.3847
0.362313
0.342446
0.323523
0.306718
0.291495
0.278167
0.266441
0.256511
0.247726
0.241494
0.233442
0.675339
0.54931
0.550356
0.501055
0.491658
0.460952
0.441708
0.415109
0.392828
0.36937
0.348627
0.328951
0.311516
0.295752
0.281963
0.269839
0.259561
0.250485
0.243934
0.235788
0.698478
0.568705
0.568823
0.516886
0.505823
0.47305
0.452252
0.424161
0.400699
0.376201
0.354608
0.334201
0.316154
0.299866
0.28563
0.273122
0.262506
0.253149
0.246288
0.238058
0.720945
0.587543
0.586746
0.532237
0.519545
0.484761
0.462452
0.432912
0.408304
0.382798
0.360382
0.339268
0.32063
0.303834
0.289167
0.276287
0.265343
0.255717
0.248556
0.240252
0.742703
0.605793
0.604098
0.547087
0.532808
0.49607
0.472295
0.441352
0.415637
0.389157
0.365945
0.344148
0.324938
0.307654
0.292569
0.279332
0.268072
0.258188
0.250735
0.242366
0.763721
0.623427
0.620851
0.561416
0.545592
0.506963
0.481771
0.449473
0.422689
0.39527
0.371292
0.348837
0.329077
0.311322
0.295836
0.282254
0.27069
0.260559
0.252827
0.244398
0.783964
0.640417
0.636982
0.575203
0.557883
0.517429
0.490868
0.457266
0.429454
0.401132
0.376418
0.353331
0.333043
0.314835
0.298964
0.285051
0.273196
0.262829
0.25483
0.246347
0.803402
0.656736
0.652465
0.588429
0.569663
0.527453
0.499577
0.464723
0.435925
0.406737
0.381317
0.357625
0.336831
0.31819
0.301951
0.287722
0.275588
0.264997
0.256743
0.248212
0.822004
0.672358
0.667278
0.601073
0.580918
0.537023
0.507888
0.471837
0.442095
0.41208
0.385987
0.361717
0.34044
0.321386
0.304795
0.290265
0.277865
0.267061
0.258564
0.249989
0.839742
0.687258
0.681397
0.613119
0.591631
0.546129
0.515791
0.478598
0.447958
0.417156
0.390421
0.365601
0.343866
0.324419
0.307493
0.292678
0.280025
0.269019
0.260294
0.251678
0.856587
0.701411
0.694801
0.624549
0.60179
0.554758
0.523277
0.485
0.453508
0.42196
0.394617
0.369276
0.347106
0.327287
0.310045
0.294958
0.282067
0.270871
0.26193
0.253277
0.872512
0.714795
0.70747
0.635347
0.611381
0.562901
0.530337
0.491037
0.458739
0.426487
0.39857
0.372738
0.350157
0.329987
0.312447
0.297105
0.283989
0.272615
0.263471
0.254785
0.887494
0.727387
0.719384
0.645497
0.620391
0.570547
0.536965
0.496701
0.463647
0.430732
0.402277
0.375983
0.353017
0.332518
0.314697
0.299117
0.28579
0.274249
0.264916
0.2562
0.901507
0.739169
0.730526
0.654984
0.628809
0.577687
0.543151
0.501987
0.468225
0.434692
0.405734
0.379009
0.355683
0.334877
0.316795
0.300991
0.287468
0.275772
0.266264
0.25752
0.91453
0.75012
0.740878
0.663796
0.636622
0.584312
0.548889
0.506888
0.47247
0.438363
0.408938
0.381813
0.358154
0.337063
0.318738
0.302728
0.289023
0.277183
0.267514
0.258744
0.926543
0.760223
0.750424
0.671918
0.643822
0.590414
0.554173
0.511401
0.476377
0.441741
0.411885
0.384392
0.360426
0.339072
0.320525
0.304325
0.290452
0.278481
0.268664
0.259872
0.937525
0.769461
0.75915
0.67934
0.650397
0.595986
0.558996
0.515518
0.479942
0.444823
0.414574
0.386745