0 	0.517293 	0 	-0.588351
0 	0.55252 	0 	-0.535379
0 	0.589056 	0 	-0.51367
0 	0.62695 	0 	-0.483648
0 	0.666252 	-1.73472e-18 	-0.458318
0 	0.707014 	-3.46945e-18 	-0.43206
0 	0.749291 	-2.08167e-18 	-0.406245
0 	0.793139 	-6.93889e-19 	-0.380219
0 	0.838615 	-6.93889e-19 	-0.354183
0 	0.885781 	2.42861e-18 	-0.328209
0 	0.9347 	6.93889e-18 	-0.302484
