/*--------------------------------*- C++ -*----------------------------------*\
  =========                 |
  \\      /  F ield         | OpenFOAM: The Open Source CFD Toolbox
   \\    /   O peration     | Website:  https://openfoam.org
    \\  /    A nd           | Version:  7
     \\/     M anipulation  |
\*---------------------------------------------------------------------------*/
FoamFile
{
    version     2.0;
    format      ascii;
    class       volVectorField;
    location    "35";
    object      U;
}
// * * * * * * * * * * * * * * * * * * * * * * * * * * * * * * * * * * * * * //

dimensions      [0 1 -1 0 0 0 0];

internalField   nonuniform List<vector> 
2625
(
(1.22402 -0.00191445 1.22789e-22)
(1.22516 -0.00188654 -8.31563e-23)
(1.22626 -0.00185623 8.70524e-23)
(1.22325 -0.00578401 1.44256e-22)
(1.22441 -0.00570939 -4.48284e-23)
(1.22554 -0.00562826 7.06646e-23)
(1.22665 -0.00553853 -1.4759e-23)
(1.224 -0.00954884 -1.46598e-23)
(1.22517 -0.00942628 -2.46071e-22)
(1.22631 -0.00929262 2.49178e-23)
(1.22742 -0.00914412 9.7471e-23)
(1.2251 -0.0132298 2.48634e-22)
(1.22627 -0.0130603 1.92856e-22)
(1.22742 -0.0128751 -3.50469e-22)
(1.22855 -0.0126689 2.49134e-22)
(1.22652 -0.0168296 3.94217e-22)
(1.22771 -0.0166133 2.09743e-23)
(1.22887 -0.0163769 4.0155e-22)
(1.23001 -0.0161135 -6.85121e-22)
(1.22823 -0.0203493 -6.05572e-22)
(1.22944 -0.0200861 -1.40694e-22)
(1.23063 -0.0197983 7.75601e-25)
(1.23179 -0.0194776 2.54285e-22)
(1.23022 -0.0237908 2.96777e-22)
(1.23145 -0.02348 1.35302e-22)
(1.23266 -0.0231402 -3.58412e-22)
(1.23384 -0.0227616 -3.14129e-22)
(1.23246 -0.0271553 -2.89048e-22)
(1.23372 -0.0267957 -3.13098e-22)
(1.23495 -0.0264028 1.15341e-22)
(1.23616 -0.0259655 -1.19545e-22)
(1.23493 -0.0304432 -3.81763e-22)
(1.23621 -0.0300334 8.40198e-23)
(1.23748 -0.029586 1.15264e-21)
(1.23872 -0.0290885 2.43478e-22)
(1.23761 -0.0336545 -1.2168e-22)
(1.23892 -0.0331924 8.5664e-22)
(1.24022 -0.0326885 -1.00178e-21)
(1.24149 -0.032129 -1.82116e-22)
(1.24047 -0.0367877 1.33487e-21)
(1.24182 -0.0362709 -1.1266e-21)
(1.24315 -0.0357083 2.53042e-22)
(1.24445 -0.0350846 -4.85852e-22)
(1.24351 -0.0398407 2.14782e-22)
(1.24489 -0.0392664 1.03718e-21)
(1.24625 -0.0386421 7.57202e-23)
(1.24758 -0.0379516 1.84237e-21)
(1.24669 -0.04281 5.7293e-22)
(1.2481 -0.0421747 -5.68329e-22)
(1.24949 -0.0414856 7.46099e-22)
(1.25085 -0.0407254 -2.01995e-22)
(1.25 -0.0456909 -9.69845e-22)
(1.25144 -0.0449908 -9.30877e-22)
(1.25286 -0.0442332 -6.6981e-22)
(1.25424 -0.0433998 2.07522e-22)
(1.25342 -0.0484778 -1.42936e-22)
(1.25488 -0.0477084 1.24892e-21)
(1.25632 -0.0468781 8.32824e-22)
(1.25773 -0.0459679 -4.38576e-22)
(1.25691 -0.0511636 9.28661e-22)
(1.2584 -0.0503199 -2.20533e-22)
(1.25986 -0.0494122 -2.26371e-22)
(1.26128 -0.048421 -1.7379e-21)
(1.26047 -0.0537399 -1.56518e-21)
(1.26196 -0.0528164 -6.82188e-22)
(1.26343 -0.0518261 3.42771e-23)
(1.26486 -0.0507496 2.534e-21)
(1.26404 -0.0561973 6.08988e-22)
(1.26554 -0.0551878 -8.95711e-22)
(1.26701 -0.0541094 5.36258e-22)
(1.26845 -0.0529428 -1.48863e-21)
(1.26762 -0.0585251 -3.61417e-22)
(1.26911 -0.057423 2.04271e-21)
(1.27058 -0.0562505 -1.68644e-21)
(1.27199 -0.054989 1.93904e-21)
(1.27116 -0.0607118 -1.99764e-22)
(1.27264 -0.0595099 -1.14836e-21)
(1.27408 -0.0582369 1.63117e-21)
(1.27546 -0.0568754 -1.38708e-21)
(1.27464 -0.0627447 1.91763e-21)
(1.27608 -0.0614355 -2.00304e-21)
(1.27748 -0.0600554 6.63525e-22)
(1.27882 -0.0585888 -4.68608e-21)
(1.27801 -0.0646106 -6.46488e-22)
(1.2794 -0.0631863 7.12005e-21)
(1.28074 -0.0616922 -7.06566e-21)
(1.28201 -0.0601154 7.94681e-21)
(1.28124 -0.066296 -1.67186e-22)
(1.28256 -0.0647483 -4.22292e-21)
(1.28381 -0.0631333 6.98652e-21)
(1.285 -0.0614414 -4.3712e-21)
(1.28428 -0.0677868 -5.84241e-21)
(1.28551 -0.0661077 1.14224e-21)
(1.28666 -0.064365 5.15896e-21)
(1.28773 -0.0625533 -4.84615e-21)
(1.28709 -0.0690695 1.18715e-20)
(1.2882 -0.0672508 -4.16775e-21)
(1.28922 -0.0653737 -8.31175e-21)
(1.29015 -0.0634379 -1.5631e-21)
(1.28963 -0.0701306 -7.58724e-21)
(1.2906 -0.0681645 9.7727e-21)
(1.29146 -0.0661468 2.45011e-21)
(1.29221 -0.0640831 -1.21975e-21)
(1.29184 -0.0709578 -5.65065e-21)
(1.29264 -0.0688366 -8.58457e-21)
(1.29331 -0.0666726 -8.16578e-21)
(1.29386 -0.0644779 5.03363e-21)
(1.2937 -0.0715395 1.57077e-21)
(1.29429 -0.0692564 -2.65916e-21)
(1.29474 -0.0669409 1.41691e-20)
(1.29504 -0.0646129 1.13266e-20)
(1.29514 -0.0718656 9.07276e-21)
(1.2955 -0.0694145 8.70793e-21)
(1.29569 -0.0669432 -3.01002e-21)
(1.2957 -0.0644804 -7.4001e-21)
(1.29612 -0.0719277 -5.22774e-21)
(1.29622 -0.0693034 -1.25564e-20)
(1.29611 -0.0666731 -1.91424e-21)
(1.2958 -0.0640749 -8.28199e-21)
(1.29661 -0.0717192 4.58523e-21)
(1.2964 -0.0689176 1.62611e-20)
(1.29595 -0.0661261 -9.64638e-22)
(1.29528 -0.0633931 4.95981e-21)
(1.29655 -0.0712358 -9.79229e-21)
(1.296 -0.0682539 -3.61016e-21)
(1.29519 -0.0653001 5.49558e-22)
(1.29411 -0.062434 3.63087e-21)
(1.2959 -0.0704751 1.43332e-21)
(1.29498 -0.0673114 -9.00654e-21)
(1.29376 -0.0641957 -1.12104e-20)
(1.29224 -0.0611991 -1.0015e-20)
(1.29463 -0.0694373 -4.57314e-21)
(1.2933 -0.0660916 8.05012e-21)
(1.29164 -0.0628156 1.76255e-20)
(1.28963 -0.0596925 1.11912e-20)
(1.29272 -0.0681247 9.10772e-21)
(1.29094 -0.0645985 3.65724e-21)
(1.2888 -0.061165 -6.6318e-21)
(1.28625 -0.0579204 -9.55661e-21)
(1.29011 -0.0665421 1.05398e-20)
(1.28786 -0.0628382 -1.21605e-20)
(1.2852 -0.0592518 1.41657e-20)
(1.28208 -0.0558916 3.20943e-21)
(1.2868 -0.0646965 1.9843e-21)
(1.28403 -0.0608194 1.67925e-20)
(1.28082 -0.0570856 -2.76628e-20)
(1.27709 -0.0536169 -3.1769e-21)
(1.28276 -0.0625971 -2.88824e-20)
(1.27945 -0.0585527 -6.12947e-21)
(1.27565 -0.0546785 1.28427e-20)
(1.27126 -0.0511091 1.76132e-21)
(1.27797 -0.060255 2.28491e-20)
(1.27408 -0.0560508 -7.89664e-21)
(1.26967 -0.0520443 2.28025e-21)
(1.26459 -0.0483829 -8.32983e-21)
(1.27242 -0.0576834 1.17074e-21)
(1.26793 -0.053328 7.69468e-21)
(1.26288 -0.0491985 4.49735e-21)
(1.25707 -0.0454542 2.82585e-20)
(1.26611 -0.0548967 -2.84229e-20)
(1.26099 -0.0504005 -9.14657e-21)
(1.25527 -0.0461581 6.96001e-21)
(1.2487 -0.0423405 -1.209e-20)
(1.25903 -0.0519113 4.0622e-21)
(1.25325 -0.0472856 -8.67537e-21)
(1.24683 -0.0429412 -6.74569e-21)
(1.23947 -0.0390601 -3.94644e-21)
(1.25117 -0.0487444 1.91575e-20)
(1.24472 -0.0440017 -2.72394e-21)
(1.23759 -0.039567 -2.17168e-20)
(1.2294 -0.035632 8.92401e-21)
(1.24255 -0.0454145 -8.71178e-21)
(1.2354 -0.0405684 2.89351e-20)
(1.22753 -0.0360553 2.02183e-20)
(1.21849 -0.032076 -3.00819e-20)
(1.23318 -0.0419409 -2.00337e-20)
(1.22531 -0.0370058 -6.56871e-22)
(1.21669 -0.0324267 -1.12517e-21)
(1.20676 -0.0284119 1.76147e-20)
(1.22305 -0.0383435 3.52788e-20)
(1.21445 -0.0333348 -1.7425e-21)
(1.20506 -0.0287021 9.66646e-21)
(1.19423 -0.0246597 1.24934e-20)
(1.21219 -0.0346431 -2.20797e-20)
(1.20283 -0.0295769 -4.12864e-21)
(1.19266 -0.0249028 -8.12723e-21)
(1.1809 -0.0208391 -2.34286e-22)
(1.2006 -0.0308606 3.39331e-20)
(1.19048 -0.025754 -2.72694e-20)
(1.17952 -0.0210503 3.01488e-21)
(1.16681 -0.0169699 -5.04033e-21)
(1.18831 -0.0270175 -2.77082e-20)
(1.17741 -0.0218885 7.74052e-21)
(1.16565 -0.0171664 -1.4303e-20)
(1.15195 -0.0130711 2.271e-20)
(1.17532 -0.0231354 1.30978e-20)
(1.16363 -0.0180035 1.43599e-20)
(1.15106 -0.0132736 5.48959e-21)
(1.13636 -0.00916154 -3.79866e-20)
(1.16165 -0.0192363 1.43049e-20)
(1.14916 -0.0141229 7.32141e-22)
(1.13578 -0.00939515 5.2202e-21)
(1.12005 -0.00525982 -1.6163e-20)
(1.14731 -0.015342 -1.3527e-21)
(1.13401 -0.0102715 -1.10105e-20)
(1.11981 -0.00555566 -1.88309e-20)
(1.13231 -0.0114744 -1.92946e-20)
(1.22764 -0.00181395 0)
(1.22929 -0.00176123 0)
(1.23091 -0.0017075 0)
(1.2325 -0.00165278 0)
(1.23406 -0.00159715 0)
(1.23558 -0.00154075 0)
(1.23708 -0.00148369 0)
(1.23853 -0.00142608 0)
(1.23995 -0.00136801 0)
(1.24133 -0.00130957 0)
(1.24266 -0.00125086 0)
(1.24395 -0.00119197 0)
(1.2452 -0.00113298 0)
(1.2464 -0.001074 0)
(1.24755 -0.0010151 0)
(1.24865 -0.000956374 0)
(1.2497 -0.00089792 0)
(1.2507 -0.000839823 0)
(1.25165 -0.000782171 0)
(1.25254 -0.000725053 0)
(1.25337 -0.000668553 0)
(1.25415 -0.000612757 0)
(1.25487 -0.000557747 0)
(1.25553 -0.000503603 0)
(1.25613 -0.000450403 0)
(1.25668 -0.000398222 0)
(1.25716 -0.000347132 0)
(1.25758 -0.0002972 0)
(1.25795 -0.000248492 0)
(1.25825 -0.000201069 0)
(1.25849 -0.000154986 0)
(1.25868 -0.000110297 0)
(1.2588 -6.70483e-05 0)
(1.25886 -2.52831e-05 0)
(1.25887 1.49607e-05 0)
(1.25881 5.36502e-05 0)
(1.2587 9.07577e-05 0)
(1.25853 0.000126261 0)
(1.25831 0.000160142 0)
(1.25803 0.000192389 0)
(1.2577 0.000222996 0)
(1.25731 0.00025196 0)
(1.25687 0.000279285 0)
(1.25639 0.000304981 0)
(1.25585 0.000329059 0)
(1.25527 0.000351539 0)
(1.25464 0.000372443 0)
(1.25397 0.000391798 0)
(1.22804 -0.00540905 0)
(1.22969 -0.00524886 0)
(1.23131 -0.00508667 0)
(1.2329 -0.00492215 0)
(1.23446 -0.00475533 0)
(1.23598 -0.00458648 0)
(1.23747 -0.00441586 0)
(1.23893 -0.00424371 0)
(1.24034 -0.0040703 0)
(1.24172 -0.00389586 0)
(1.24305 -0.00372066 0)
(1.24434 -0.00354496 0)
(1.24558 -0.00336902 0)
(1.24678 -0.0031931 0)
(1.24792 -0.00301746 0)
(1.24902 -0.00284238 0)
(1.25007 -0.00266812 0)
(1.25106 -0.00249494 0)
(1.252 -0.00232311 0)
(1.25288 -0.00215288 0)
(1.25371 -0.00198451 0)
(1.25448 -0.00181825 0)
(1.25519 -0.00165435 0)
(1.25585 -0.00149304 0)
(1.25644 -0.00133456 0)
(1.25698 -0.00117912 0)
(1.25746 -0.00102694 0)
(1.25787 -0.00087823 0)
(1.25823 -0.000733171 0)
(1.25852 -0.000591947 0)
(1.25875 -0.000454727 0)
(1.25893 -0.000321664 0)
(1.25904 -0.000192899 0)
(1.2591 -6.85597e-05 0)
(1.25909 5.12422e-05 0)
(1.25903 0.000166409 0)
(1.25891 0.00027686 0)
(1.25873 0.000382528 0)
(1.25849 0.000483361 0)
(1.2582 0.000579326 0)
(1.25786 0.000670402 0)
(1.25746 0.000756585 0)
(1.25702 0.000837886 0)
(1.25652 0.000914332 0)
(1.25597 0.000985961 0)
(1.25538 0.00105283 0)
(1.25474 0.00111501 0)
(1.25405 0.00117257 0)
(1.22881 -0.00892805 0)
(1.23046 -0.00866069 0)
(1.23208 -0.00839047 0)
(1.23367 -0.00811678 0)
(1.23523 -0.00783958 0)
(1.23676 -0.00755927 0)
(1.23825 -0.00727624 0)
(1.2397 -0.00699087 0)
(1.24111 -0.00670353 0)
(1.24248 -0.00641463 0)
(1.2438 -0.00612457 0)
(1.24508 -0.00583376 0)
(1.24632 -0.00554264 0)
(1.24751 -0.00525163 0)
(1.24865 -0.00496116 0)
(1.24973 -0.00467166 0)
(1.25077 -0.00438358 0)
(1.25175 -0.00409733 0)
(1.25268 -0.00381337 0)
(1.25355 -0.0035321 0)
(1.25436 -0.00325395 0)
(1.25512 -0.00297933 0)
(1.25582 -0.00270864 0)
(1.25646 -0.00244228 0)
(1.25704 -0.00218062 0)
(1.25756 -0.00192402 0)
(1.25802 -0.00167285 0)
(1.25842 -0.00142742 0)
(1.25876 -0.00118806 0)
(1.25903 -0.000955064 0)
(1.25925 -0.000728698 0)
(1.25941 -0.00050922 0)
(1.2595 -0.00029686 0)
(1.25954 -9.18242e-05 0)
(1.25951 0.000105704 0)
(1.25943 0.000295565 0)
(1.25929 0.000477628 0)
(1.25909 0.000651784 0)
(1.25884 0.000817952 0)
(1.25853 0.000976076 0)
(1.25816 0.00112612 0)
(1.25775 0.00126809 0)
(1.25728 0.001402 0)
(1.25676 0.00152789 0)
(1.25619 0.00164584 0)
(1.25558 0.00175593 0)
(1.25492 0.00185827 0)
(1.25421 0.00195301 0)
(1.22995 -0.0123675 0)
(1.2316 -0.011994 0)
(1.23322 -0.0116166 0)
(1.23481 -0.0112345 0)
(1.23636 -0.0108478 0)
(1.23788 -0.0104568 0)
(1.23937 -0.0100622 0)
(1.24081 -0.00966454 0)
(1.24222 -0.00926429 0)
(1.24358 -0.00886199 0)
(1.24489 -0.00845822 0)
(1.24616 -0.00805354 0)
(1.24739 -0.00764855 0)
(1.24856 -0.00724382 0)
(1.24969 -0.00683996 0)
(1.25076 -0.00643756 0)
(1.25178 -0.00603723 0)
(1.25274 -0.00563955 0)
(1.25365 -0.00524513 0)
(1.25451 -0.00485454 0)
(1.2553 -0.00446838 0)
(1.25604 -0.0040872 0)
(1.25672 -0.00371156 0)
(1.25734 -0.00334199 0)
(1.2579 -0.00297903 0)
(1.25839 -0.00262318 0)
(1.25883 -0.0022749 0)
(1.2592 -0.00193467 0)
(1.25952 -0.00160291 0)
(1.25977 -0.00128003 0)
(1.25996 -0.000966403 0)
(1.26009 -0.000662375 0)
(1.26016 -0.000368264 0)
(1.26016 -8.43508e-05 0)
(1.26011 0.000189115 0)
(1.26 0.000451919 0)
(1.25983 0.00070388 0)
(1.25961 0.000944854 0)
(1.25932 0.00117473 0)
(1.25898 0.00139344 0)
(1.25859 0.00160094 0)
(1.25814 0.00179722 0)
(1.25764 0.00198233 0)
(1.25709 0.00215632 0)
(1.2565 0.00231928 0)
(1.25585 0.00247136 0)
(1.25516 0.00261271 0)
(1.25442 0.00274351 0)
(1.23142 -0.0157274 0)
(1.23307 -0.015248 0)
(1.23468 -0.0147637 0)
(1.23627 -0.0142736 0)
(1.23782 -0.0137776 0)
(1.23934 -0.0132765 0)
(1.24081 -0.0127708 0)
(1.24225 -0.0122614 0)
(1.24364 -0.0117488 0)
(1.24499 -0.0112338 0)
(1.24629 -0.010717 0)
(1.24755 -0.0101993 0)
(1.24876 -0.00968139 0)
(1.24992 -0.00916395 0)
(1.25102 -0.00864778 0)
(1.25207 -0.00813364 0)
(1.25307 -0.00762229 0)
(1.25402 -0.00711448 0)
(1.2549 -0.00661098 0)
(1.25573 -0.00611252 0)
(1.2565 -0.00561983 0)
(1.25721 -0.00513364 0)
(1.25786 -0.00465465 0)
(1.25845 -0.00418353 0)
(1.25898 -0.00372096 0)
(1.25945 -0.00326755 0)
(1.25985 -0.00282392 0)
(1.2602 -0.00239064 0)
(1.26048 -0.00196827 0)
(1.26069 -0.00155729 0)
(1.26085 -0.0011582 0)
(1.26094 -0.000771415 0)
(1.26098 -0.00039734 0)
(1.26095 -3.63235e-05 0)
(1.26086 0.000311323 0)
(1.26071 0.000645332 0)
(1.2605 0.000965484 0)
(1.26024 0.0012716 0)
(1.25992 0.00156354 0)
(1.25954 0.00184123 0)
(1.25911 0.00210462 0)
(1.25862 0.00235371 0)
(1.25808 0.00258855 0)
(1.25749 0.00280923 0)
(1.25685 0.00301586 0)
(1.25617 0.00320863 0)
(1.25544 0.00338773 0)
(1.25466 0.00355342 0)
(1.23321 -0.0190069 0)
(1.23485 -0.0184215 0)
(1.23646 -0.0178303 0)
(1.23804 -0.0172321 0)
(1.23958 -0.0166268 0)
(1.24109 -0.0160155 0)
(1.24255 -0.0153988 0)
(1.24398 -0.0147778 0)
(1.24536 -0.0141531 0)
(1.24669 -0.0135257 0)
(1.24798 -0.0128964 0)
(1.24922 -0.0122662 0)
(1.2504 -0.0116359 0)
(1.25154 -0.0110064 0)
(1.25262 -0.0103787 0)
(1.25365 -0.00975364 0)
(1.25462 -0.00913221 0)
(1.25554 -0.00851531 0)
(1.25639 -0.00790384 0)
(1.25719 -0.00729869 0)
(1.25793 -0.00670076 0)
(1.25861 -0.0061109 0)
(1.25922 -0.00552996 0)
(1.25978 -0.00495876 0)
(1.26027 -0.00439808 0)
(1.2607 -0.0038487 0)
(1.26106 -0.00331132 0)
(1.26136 -0.00278666 0)
(1.2616 -0.00227534 0)
(1.26178 -0.00177798 0)
(1.26189 -0.00129515 0)
(1.26194 -0.000827351 0)
(1.26193 -0.000375058 0)
(1.26186 6.13134e-05 0)
(1.26172 0.000481397 0)
(1.26153 0.000884881 0)
(1.26128 0.00127151 0)
(1.26096 0.00164107 0)
(1.26059 0.00199341 0)
(1.26017 0.00232844 0)
(1.25969 0.00264612 0)
(1.25915 0.00294645 0)
(1.25856 0.0032295 0)
(1.25793 0.00349538 0)
(1.25724 0.00374425 0)
(1.2565 0.00397633 0)
(1.25572 0.00419187 0)
(1.25489 0.00439116 0)
(1.23528 -0.0222059 0)
(1.23692 -0.0215137 0)
(1.23852 -0.020815 0)
(1.24009 -0.020108 0)
(1.24162 -0.019393 0)
(1.24312 -0.018671 0)
(1.24457 -0.0179431 0)
(1.24598 -0.0172101 0)
(1.24734 -0.0164732 0)
(1.24865 -0.0157334 0)
(1.24992 -0.0149916 0)
(1.25113 -0.014249 0)
(1.2523 -0.0135066 0)
(1.2534 -0.0127655 0)
(1.25446 -0.0120267 0)
(1.25546 -0.0112914 0)
(1.25639 -0.0105605 0)
(1.25728 -0.00983534 0)
(1.2581 -0.00911679 0)
(1.25886 -0.00840595 0)
(1.25956 -0.00770385 0)
(1.26019 -0.00701148 0)
(1.26077 -0.00632984 0)
(1.26128 -0.00565987 0)
(1.26172 -0.00500249 0)
(1.26211 -0.00435858 0)
(1.26242 -0.00372897 0)
(1.26268 -0.00311448 0)
(1.26287 -0.00251583 0)
(1.26299 -0.00193374 0)
(1.26306 -0.00136885 0)
(1.26305 -0.000821742 0)
(1.26299 -0.000292958 0)
(1.26286 0.000217029 0)
(1.26267 0.000707805 0)
(1.26242 0.00117902 0)
(1.26211 0.00163038 0)
(1.26174 0.00206165 0)
(1.26132 0.00247268 0)
(1.26083 0.00286337 0)
(1.26029 0.00323367 0)
(1.2597 0.00358361 0)
(1.25906 0.00391327 0)
(1.25836 0.0042228 0)
(1.25761 0.00451239 0)
(1.25682 0.00478231 0)
(1.25597 0.00503285 0)
(1.25509 0.00526438 0)
(1.23762 -0.0253238 0)
(1.23925 -0.0245237 0)
(1.24083 -0.0237161 0)
(1.24239 -0.0228994 0)
(1.24392 -0.0220736 0)
(1.2454 -0.0212401 0)
(1.24683 -0.0204001 0)
(1.24822 -0.0195546 0)
(1.24956 -0.018705 0)
(1.25085 -0.0178523 0)
(1.25209 -0.0169978 0)
(1.25328 -0.0161427 0)
(1.25441 -0.0152881 0)
(1.25548 -0.0144354 0)
(1.2565 -0.0135858 0)
(1.25746 -0.0127405 0)
(1.25836 -0.0119008 0)
(1.2592 -0.0110679 0)
(1.25998 -0.010243 0)
(1.2607 -0.00942727 0)
(1.26135 -0.00862191 0)
(1.26194 -0.00782806 0)
(1.26246 -0.00704682 0)
(1.26292 -0.00627929 0)
(1.26331 -0.00552649 0)
(1.26364 -0.00478942 0)
(1.2639 -0.00406903 0)
(1.2641 -0.00336621 0)
(1.26423 -0.0026818 0)
(1.2643 -0.00201659 0)
(1.2643 -0.0013713 0)
(1.26424 -0.000746579 0)
(1.26411 -0.000143032 0)
(1.26392 0.000438818 0)
(1.26367 0.000998517 0)
(1.26335 0.00153568 0)
(1.26298 0.00204998 0)
(1.26254 0.00254119 0)
(1.26205 0.00300914 0)
(1.2615 0.00345371 0)
(1.26089 0.0038749 0)
(1.26023 0.00427273 0)
(1.25952 0.00464731 0)
(1.25875 0.00499883 0)
(1.25794 0.00532752 0)
(1.25707 0.00563369 0)
(1.25616 0.0059177 0)
(1.25521 0.00617997 0)
(1.24019 -0.0283596 0)
(1.24181 -0.0274497 0)
(1.24338 -0.0265316 0)
(1.24493 -0.0256035 0)
(1.24644 -0.0246656 0)
(1.2479 -0.0237193 0)
(1.24931 -0.022766 0)
(1.25068 -0.0218071 0)
(1.25199 -0.0208439 0)
(1.25325 -0.0198776 0)
(1.25446 -0.0189098 0)
(1.25561 -0.0179417 0)
(1.25671 -0.0169748 0)
(1.25774 -0.0160104 0)
(1.25872 -0.01505 0)
(1.25964 -0.0140949 0)
(1.26049 -0.0131465 0)
(1.26128 -0.0122063 0)
(1.26201 -0.0112756 0)
(1.26268 -0.0103556 0)
(1.26327 -0.0094478 0)
(1.26381 -0.00855337 0)
(1.26427 -0.00767356 0)
(1.26467 -0.00680959 0)
(1.265 -0.00596259 0)
(1.26527 -0.00513367 0)
(1.26547 -0.00432388 0)
(1.2656 -0.00353421 0)
(1.26566 -0.00276559 0)
(1.26566 -0.00201886 0)
(1.26559 -0.00129483 0)
(1.26546 -0.000594218 0)
(1.26526 8.23357e-05 0)
(1.265 0.000734259 0)
(1.26467 0.00136106 0)
(1.26428 0.00196233 0)
(1.26383 0.00253774 0)
(1.26332 0.00308702 0)
(1.26276 0.00361002 0)
(1.26213 0.00410664 0)
(1.26145 0.00457686 0)
(1.26071 0.00502075 0)
(1.25992 0.00543846 0)
(1.25907 0.00583019 0)
(1.25818 0.00619624 0)
(1.25724 0.00653695 0)
(1.25625 0.00685276 0)
(1.25522 0.00714413 0)
(1.24298 -0.0313112 0)
(1.24458 -0.0302893 0)
(1.24614 -0.0292587 0)
(1.24767 -0.0282173 0)
(1.24916 -0.0271653 0)
(1.25059 -0.0261046 0)
(1.25198 -0.0250366 0)
(1.25332 -0.0239629 0)
(1.2546 -0.0228849 0)
(1.25583 -0.0218041 0)
(1.257 -0.0207221 0)
(1.25811 -0.0196404 0)
(1.25916 -0.0185605 0)
(1.26016 -0.0174841 0)
(1.26108 -0.0164127 0)
(1.26195 -0.0153478 0)
(1.26275 -0.014291 0)
(1.26349 -0.0132437 0)
(1.26416 -0.0122076 0)
(1.26476 -0.011184 0)
(1.2653 -0.0101744 0)
(1.26577 -0.00918018 0)
(1.26617 -0.00820275 0)
(1.2665 -0.0072434 0)
(1.26676 -0.00630338 0)
(1.26695 -0.0053839 0)
(1.26708 -0.0044861 0)
(1.26713 -0.00361106 0)
(1.26712 -0.00275976 0)
(1.26704 -0.00193316 0)
(1.26689 -0.0011321 0)
(1.26668 -0.000357346 0)
(1.2664 0.000390403 0)
(1.26606 0.00111054 0)
(1.26565 0.00180256 0)
(1.26517 0.00246601 0)
(1.26464 0.00310057 0)
(1.26405 0.00370598 0)
(1.26339 0.00428206 0)
(1.26268 0.00482875 0)
(1.26191 0.00534605 0)
(1.26109 0.00583406 0)
(1.26021 0.00629295 0)
(1.25928 0.00672298 0)
(1.2583 0.00712449 0)
(1.25727 0.00749789 0)
(1.25619 0.00784365 0)
(1.25507 0.00816233 0)
(1.24596 -0.0341758 0)
(1.24754 -0.0330393 0)
(1.24907 -0.0318937 0)
(1.25058 -0.0307366 0)
(1.25205 -0.0295685 0)
(1.25346 -0.0283913 0)
(1.25482 -0.0272069 0)
(1.25612 -0.0260167 0)
(1.25736 -0.0248225 0)
(1.25855 -0.0236259 0)
(1.25968 -0.0224287 0)
(1.26074 -0.0212325 0)
(1.26175 -0.0200391 0)
(1.26269 -0.0188501 0)
(1.26356 -0.0176674 0)
(1.26437 -0.0164925 0)
(1.26511 -0.0153272 0)
(1.26578 -0.0141731 0)
(1.26638 -0.0130318 0)
(1.26692 -0.0119051 0)
(1.26738 -0.0107944 0)
(1.26778 -0.00970122 0)
(1.2681 -0.00862709 0)
(1.26835 -0.00757343 0)
(1.26854 -0.00654157 0)
(1.26865 -0.00553283 0)
(1.26869 -0.00454843 0)
(1.26866 -0.00358951 0)
(1.26856 -0.00265716 0)
(1.2684 -0.00175237 0)
(1.26816 -0.000876036 0)
(1.26786 -2.89852e-05 0)
(1.26749 0.00078806 0)
(1.26705 0.00157447 0)
(1.26655 0.00232969 0)
(1.26598 0.0030533 0)
(1.26535 0.00374495 0)
(1.26466 0.00440438 0)
(1.26392 0.00503145 0)
(1.26311 0.0056261 0)
(1.26224 0.00618837 0)
(1.26132 0.00671839 0)
(1.26035 0.00721637 0)
(1.25932 0.00768262 0)
(1.25825 0.00811753 0)
(1.25712 0.00852158 0)
(1.25595 0.00889531 0)
(1.25474 0.00923933 0)
(1.2491 -0.0369495 0)
(1.25066 -0.0356954 0)
(1.25217 -0.0344319 0)
(1.25365 -0.0331565 0)
(1.25509 -0.0318699 0)
(1.25647 -0.030574 0)
(1.25779 -0.029271 0)
(1.25905 -0.0279626 0)
(1.26025 -0.0266506 0)
(1.26139 -0.0253368 0)
(1.26247 -0.0240231 0)
(1.26348 -0.0227115 0)
(1.26442 -0.0214036 0)
(1.2653 -0.0201015 0)
(1.26611 -0.018807 0)
(1.26685 -0.0175219 0)
(1.26752 -0.016248 0)
(1.26812 -0.0149872 0)
(1.26865 -0.0137412 0)
(1.2691 -0.0125118 0)
(1.26949 -0.0113006 0)
(1.2698 -0.0101092 0)
(1.27004 -0.00893934 0)
(1.2702 -0.00779244 0)
(1.2703 -0.00666997 0)
(1.27032 -0.00557331 0)
(1.27027 -0.00450378 0)
(1.27014 -0.00346258 0)
(1.26995 -0.00245085 0)
(1.26969 -0.00146965 0)
(1.26935 -0.000519925 0)
(1.26895 0.000397477 0)
(1.26847 0.0012818 0)
(1.26794 0.00213239 0)
(1.26733 0.0029487 0)
(1.26666 0.00373028 0)
(1.26593 0.0044768 0)
(1.26514 0.00518803 0)
(1.26428 0.00586382 0)
(1.26337 0.00650415 0)
(1.2624 0.0071091 0)
(1.26138 0.00767884 0)
(1.2603 0.00821363 0)
(1.25917 0.00871384 0)
(1.25799 0.00917992 0)
(1.25676 0.00961239 0)
(1.25549 0.0100119 0)
(1.25417 0.0103791 0)
(1.25239 -0.0396272 0)
(1.25392 -0.0382522 0)
(1.2554 -0.0368678 0)
(1.25685 -0.0354712 0)
(1.25825 -0.0340633 0)
(1.25959 -0.0326464 0)
(1.26086 -0.0312226 0)
(1.26208 -0.0297939 0)
(1.26322 -0.0283623 0)
(1.26431 -0.0269297 0)
(1.26533 -0.0254983 0)
(1.26627 -0.02407 0)
(1.26715 -0.0226469 0)
(1.26796 -0.0212309 0)
(1.2687 -0.0198241 0)
(1.26936 -0.0184285 0)
(1.26995 -0.0170461 0)
(1.27047 -0.0156787 0)
(1.27091 -0.0143282 0)
(1.27128 -0.0129966 0)
(1.27158 -0.0116856 0)
(1.27179 -0.0103969 0)
(1.27194 -0.00913228 0)
(1.27201 -0.00789331 0)
(1.272 -0.00668153 0)
(1.27192 -0.0054984 0)
(1.27176 -0.0043453 0)
(1.27154 -0.00322351 0)
(1.27124 -0.00213423 0)
(1.27086 -0.00107853 0)
(1.27042 -5.74183e-05 0)
(1.2699 0.000928238 0)
(1.26932 0.00187766 0)
(1.26867 0.00279019 0)
(1.26796 0.00366528 0)
(1.26717 0.00450249 0)
(1.26633 0.00530149 0)
(1.26542 0.00606207 0)
(1.26445 0.00678413 0)
(1.26343 0.00746768 0)
(1.26234 0.00811283 0)
(1.26121 0.00871981 0)
(1.26001 0.00928893 0)
(1.25877 0.00982063 0)
(1.25748 0.0103154 0)
(1.25614 0.0107739 0)
(1.25475 0.0111967 0)
(1.25332 0.0115847 0)
(1.25579 -0.0422028 0)
(1.25729 -0.0407035 0)
(1.25872 -0.0391947 0)
(1.26014 -0.0376738 0)
(1.26149 -0.0361417 0)
(1.26278 -0.0346011 0)
(1.26401 -0.0330542 0)
(1.26517 -0.0315031 0)
(1.26625 -0.02995 0)
(1.26727 -0.0283971 0)
(1.26822 -0.0268465 0)
(1.2691 -0.0253005 0)
(1.2699 -0.0237612 0)
(1.27063 -0.0222307 0)
(1.27128 -0.0207112 0)
(1.27186 -0.0192049 0)
(1.27236 -0.0177138 0)
(1.27279 -0.01624 0)
(1.27314 -0.0147855 0)
(1.27341 -0.0133522 0)
(1.2736 -0.0119422 0)
(1.27372 -0.0105571 0)
(1.27375 -0.00919883 0)
(1.27371 -0.00786905 0)
(1.2736 -0.00656939 0)
(1.2734 -0.00530138 0)
(1.27314 -0.00406644 0)
(1.27279 -0.00286592 0)
(1.27237 -0.00170104 0)
(1.27188 -0.000572941 0)
(1.27132 0.000517374 0)
(1.27069 0.001569 0)
(1.26998 0.00258117 0)
(1.26921 0.0035532 0)
(1.26837 0.00448456 0)
(1.26747 0.00537483 0)
(1.2665 0.0062237 0)
(1.26547 0.007031 0)
(1.26438 0.00779666 0)
(1.26323 0.00852073 0)
(1.26202 0.00920338 0)
(1.26076 0.00984488 0)
(1.25945 0.0104456 0)
(1.25808 0.0110061 0)
(1.25667 0.0115269 0)
(1.25521 0.0120087 0)
(1.25371 0.0124523 0)
(1.25216 0.0128586 0)
(1.25928 -0.0446689 0)
(1.26073 -0.0430415 0)
(1.26212 -0.0414049 0)
(1.26349 -0.0397563 0)
(1.2648 -0.0380972 0)
(1.26603 -0.0364302 0)
(1.26719 -0.0347577 0)
(1.26828 -0.0330821 0)
(1.2693 -0.0314057 0)
(1.27025 -0.0297308 0)
(1.27112 -0.0280597 0)
(1.27191 -0.0263949 0)
(1.27263 -0.0247385 0)
(1.27327 -0.0230929 0)
(1.27383 -0.0214604 0)
(1.27431 -0.0198432 0)
(1.27471 -0.0182435 0)
(1.27504 -0.0166636 0)
(1.27528 -0.0151055 0)
(1.27544 -0.0135713 0)
(1.27552 -0.0120631 0)
(1.27552 -0.0105827 0)
(1.27544 -0.00913208 0)
(1.27528 -0.00771295 0)
(1.27504 -0.00632702 0)
(1.27473 -0.00497588 0)
(1.27433 -0.00366101 0)
(1.27386 -0.0023838 0)
(1.27332 -0.00114552 0)
(1.2727 5.26942e-05 0)
(1.27201 0.0012098 0)
(1.27124 0.0023249 0)
(1.27041 0.00339721 0)
(1.2695 0.00442608 0)
(1.26853 0.00541097 0)
(1.26749 0.00635151 0)
(1.26639 0.00724741 0)
(1.26523 0.00809854 0)
(1.26401 0.00890488 0)
(1.26273 0.00966653 0)
(1.26139 0.0103837 0)
(1.26 0.0110568 0)
(1.25856 0.0116863 0)
(1.25707 0.0122726 0)
(1.25553 0.0128165 0)
(1.25394 0.0133188 0)
(1.25232 0.0137803 0)
(1.25065 0.0142019 0)
(1.26282 -0.0470169 0)
(1.26423 -0.0452576 0)
(1.26556 -0.0434896 0)
(1.26687 -0.0417101 0)
(1.26812 -0.0399209 0)
(1.26929 -0.0381248 0)
(1.27038 -0.0363244 0)
(1.27139 -0.0345222 0)
(1.27233 -0.0327206 0)
(1.27319 -0.0309222 0)
(1.27398 -0.0291294 0)
(1.27468 -0.0273447 0)
(1.2753 -0.0255705 0)
(1.27584 -0.0238093 0)
(1.27629 -0.0220634 0)
(1.27667 -0.0203354 0)
(1.27696 -0.0186274 0)
(1.27716 -0.0169418 0)
(1.27729 -0.0152808 0)
(1.27733 -0.0136466 0)
(1.27728 -0.0120413 0)
(1.27716 -0.010467 0)
(1.27695 -0.00892543 0)
(1.27666 -0.00741861 0)
(1.27629 -0.00594824 0)
(1.27584 -0.00451597 0)
(1.27531 -0.00312332 0)
(1.27471 -0.00177171 0)
(1.27402 -0.000462438 0)
(1.27326 0.000803339 0)
(1.27243 0.00202458 0)
(1.27153 0.00320039 0)
(1.27055 0.00433 0)
(1.2695 0.00541276 0)
(1.26839 0.00644819 0)
(1.26721 0.00743593 0)
(1.26597 0.00837575 0)
(1.26467 0.00926756 0)
(1.26331 0.0101114 0)
(1.26189 0.0109074 0)
(1.26041 0.011656 0)
(1.25889 0.0123575 0)
(1.25731 0.0130124 0)
(1.25568 0.0136214 0)
(1.25401 0.0141852 0)
(1.25229 0.0147048 0)
(1.25053 0.0151811 0)
(1.24874 0.0156151 0)
(1.2664 -0.0492372 0)
(1.26774 -0.0473423 0)
(1.26901 -0.0454391 0)
(1.27025 -0.0435255 0)
(1.27142 -0.0416032 0)
(1.27251 -0.0396754 0)
(1.27352 -0.0377448 0)
(1.27445 -0.035814 0)
(1.2753 -0.0338856 0)
(1.27607 -0.0319623 0)
(1.27675 -0.0300467 0)
(1.27735 -0.0281413 0)
(1.27786 -0.0262487 0)
(1.27828 -0.0243716 0)
(1.27862 -0.0225125 0)
(1.27888 -0.0206737 0)
(1.27904 -0.0188579 0)
(1.27912 -0.0170673 0)
(1.27912 -0.0153043 0)
(1.27903 -0.0135713 0)
(1.27885 -0.0118702 0)
(1.27859 -0.0102034 0)
(1.27824 -0.00857269 0)
(1.27781 -0.0069801 0)
(1.27729 -0.00542739 0)
(1.2767 -0.00391625 0)
(1.27602 -0.00244825 0)
(1.27527 -0.00102481 0)
(1.27444 0.000352744 0)
(1.27353 0.00168325 0)
(1.27255 0.00296569 0)
(1.27149 0.00419916 0)
(1.27036 0.00538291 0)
(1.26917 0.00651636 0)
(1.2679 0.00759903 0)
(1.26658 0.00863062 0)
(1.26519 0.00961096 0)
(1.26374 0.01054 0)
(1.26223 0.0114179 0)
(1.26066 0.0122449 0)
(1.25904 0.0130213 0)
(1.25737 0.0137476 0)
(1.25565 0.0144246 0)
(1.25389 0.0150528 0)
(1.25207 0.0156332 0)
(1.25022 0.0161667 0)
(1.24833 0.0166545 0)
(1.2464 0.0170975 0)
(1.26996 -0.0513191 0)
(1.27123 -0.0492847 0)
(1.27242 -0.047243 0)
(1.27358 -0.045192 0)
(1.27467 -0.0431339 0)
(1.27568 -0.041072 0)
(1.27659 -0.0390091 0)
(1.27742 -0.0369479 0)
(1.27817 -0.0348913 0)
(1.27882 -0.0328419 0)
(1.27939 -0.0308025 0)
(1.27987 -0.0287759 0)
(1.28026 -0.0267648 0)
(1.28056 -0.0247717 0)
(1.28078 -0.0227994 0)
(1.2809 -0.0208505 0)
(1.28093 -0.0189275 0)
(1.28087 -0.017033 0)
(1.28072 -0.0151692 0)
(1.28049 -0.0133386 0)
(1.28016 -0.0115435 0)
(1.27975 -0.00978603 0)
(1.27925 -0.00806823 0)
(1.27867 -0.00639209 0)
(1.278 -0.00475945 0)
(1.27725 -0.00317202 0)
(1.27642 -0.00163139 0)
(1.2755 -0.000139015 0)
(1.27451 0.0013038 0)
(1.27344 0.00269589 0)
(1.2723 0.00403625 0)
(1.27109 0.00532401 0)
(1.2698 0.00655846 0)
(1.26845 0.00773904 0)
(1.26703 0.00886535 0)
(1.26554 0.00993713 0)
(1.26399 0.0109543 0)
(1.26239 0.0119169 0)
(1.26073 0.012825 0)
(1.25901 0.0136791 0)
(1.25724 0.0144796 0)
(1.25542 0.0152272 0)
(1.25355 0.0159224 0)
(1.25164 0.0165662 0)
(1.24969 0.0171595 0)
(1.2477 0.0177033 0)
(1.24566 0.018199 0)
(1.2436 0.0186476 0)
(1.27347 -0.0532509 0)
(1.27466 -0.0510736 0)
(1.27576 -0.04889 0)
(1.27683 -0.0466987 0)
(1.27783 -0.0445022 0)
(1.27873 -0.042304 0)
(1.27954 -0.040107 0)
(1.28026 -0.037914 0)
(1.28088 -0.035728 0)
(1.28142 -0.0335517 0)
(1.28186 -0.0313881 0)
(1.28221 -0.0292401 0)
(1.28247 -0.0271103 0)
(1.28263 -0.0250016 0)
(1.2827 -0.0229168 0)
(1.28268 -0.0208585 0)
(1.28256 -0.0188294 0)
(1.28235 -0.0168321 0)
(1.28205 -0.0148691 0)
(1.28166 -0.0129428 0)
(1.28118 -0.0110555 0)
(1.2806 -0.0092096 0)
(1.27994 -0.00740707 0)
(1.27919 -0.00564995 0)
(1.27836 -0.00394012 0)
(1.27744 -0.00227933 0)
(1.27644 -0.000669164 0)
(1.27536 0.000888916 0)
(1.2742 0.00239362 0)
(1.27297 0.00384379 0)
(1.27165 0.00523846 0)
(1.27027 0.00657679 0)
(1.26882 0.00785813 0)
(1.2673 0.00908198 0)
(1.26571 0.010248 0)
(1.26406 0.011356 0)
(1.26235 0.0124059 0)
(1.26058 0.013398 0)
(1.25876 0.0143324 0)
(1.25689 0.0152096 0)
(1.25496 0.0160302 0)
(1.25299 0.0167948 0)
(1.25098 0.0175043 0)
(1.24892 0.0181597 0)
(1.24682 0.018762 0)
(1.24468 0.0193124 0)
(1.24251 0.0198122 0)
(1.24031 0.0202627 0)
(1.27689 -0.0550202 0)
(1.27798 -0.0526968 0)
(1.27898 -0.0503683 0)
(1.27995 -0.0480341 0)
(1.28084 -0.0456972 0)
(1.28162 -0.0433609 0)
(1.28231 -0.0410284 0)
(1.28291 -0.0387025 0)
(1.2834 -0.0363863 0)
(1.2838 -0.0340827 0)
(1.28411 -0.0317948 0)
(1.28432 -0.0295253 0)
(1.28443 -0.0272773 0)
(1.28444 -0.0250537 0)
(1.28435 -0.0228573 0)
(1.28417 -0.0206908 0)
(1.2839 -0.018557 0)
(1.28352 -0.0164587 0)
(1.28306 -0.0143983 0)
(1.2825 -0.0123784 0)
(1.28184 -0.0104014 0)
(1.2811 -0.00846953 0)
(1.28026 -0.00658502 0)
(1.27934 -0.00474987 0)
(1.27833 -0.002966 0)
(1.27723 -0.00123515 0)
(1.27605 0.000441086 0)
(1.2748 0.00206126 0)
(1.27346 0.00362409 0)
(1.27204 0.00512847 0)
(1.27056 0.00657347 0)
(1.269 0.0079583 0)
(1.26737 0.00928237 0)
(1.26568 0.0105452 0)
(1.26392 0.0117467 0)
(1.2621 0.0128865 0)
(1.26022 0.013965 0)
(1.25829 0.0149821 0)
(1.2563 0.0159384 0)
(1.25427 0.0168344 0)
(1.25218 0.0176707 0)
(1.25006 0.0184482 0)
(1.24789 0.0191678 0)
(1.24568 0.0198306 0)
(1.24344 0.0204379 0)
(1.24116 0.0209908 0)
(1.23885 0.0214908 0)
(1.23651 0.0219394 0)
(1.28018 -0.0566142 0)
(1.28116 -0.0541419 0)
(1.28205 -0.0516659 0)
(1.2829 -0.0491868 0)
(1.28366 -0.0467077 0)
(1.28431 -0.0442321 0)
(1.28487 -0.0417631 0)
(1.28532 -0.0393037 0)
(1.28568 -0.036857 0)
(1.28593 -0.0344261 0)
(1.28608 -0.0320141 0)