/*--------------------------------*- C++ -*----------------------------------*\
  =========                 |
  \\      /  F ield         | OpenFOAM: The Open Source CFD Toolbox
   \\    /   O peration     | Website:  https://openfoam.org
    \\  /    A nd           | Version:  7
     \\/     M anipulation  |
\*---------------------------------------------------------------------------*/
FoamFile
{
    version     2.0;
    format      ascii;
    class       volVectorField;
    location    "15";
    object      U;
}
// * * * * * * * * * * * * * * * * * * * * * * * * * * * * * * * * * * * * * //

dimensions      [0 1 -1 0 0 0 0];

internalField   nonuniform List<vector> 
2625
(
(1.25596 -0.0128382 0)
(1.25438 -0.0135388 0)
(1.25275 -0.0141949 0)
(1.25109 -0.014807 0)
(1.24939 -0.0153757 0)
(1.24766 -0.0159017 0)
(1.2459 -0.016386 0)
(1.2441 -0.0168295 0)
(1.24228 -0.0172336 0)
(1.24043 -0.0175995 0)
(1.23856 -0.0179288 0)
(1.23666 -0.018223 0)
(1.23475 -0.0184838 0)
(1.23281 -0.0187129 0)
(1.23086 -0.0189121 0)
(1.22889 -0.0190832 0)
(1.2269 -0.019228 0)
(1.22491 -0.0193483 0)
(1.22289 -0.0194459 0)
(1.22087 -0.0195227 0)
(1.21883 -0.0195804 0)
(1.21679 -0.0196208 0)
(1.21473 -0.0196456 0)
(1.21266 -0.0196565 0)
(1.21059 -0.0196552 0)
(1.20851 -0.0196432 0)
(1.20642 -0.019622 0)
(1.20432 -0.0195933 0)
(1.20221 -0.0195585 0)
(1.2001 -0.0195191 0)
(1.19798 -0.0194764 0)
(1.19585 -0.0194318 0)
(1.19371 -0.0193866 0)
(1.19157 -0.0193422 0)
(1.18942 -0.0192999 0)
(1.27226 0.00183517 0)
(1.27176 0.000647079 0)
(1.27112 -0.000561613 0)
(1.27036 -0.00177081 0)
(1.26948 -0.00295417 0)
(1.2685 -0.00409822 0)
(1.26745 -0.00519728 0)
(1.26632 -0.00624972 0)
(1.26514 -0.00725568 0)
(1.2639 -0.00821584 0)
(1.2626 -0.00913088 0)
(1.26125 -0.0100013 0)
(1.25985 -0.0108273 0)
(1.25841 -0.0116092 0)
(1.25691 -0.0123471 0)
(1.25538 -0.0130411 0)
(1.2538 -0.0136917 0)
(1.25218 -0.0142991 0)
(1.25053 -0.014864 0)
(1.24884 -0.0153871 0)
(1.24711 -0.0158692 0)
(1.24536 -0.0163113 0)
(1.24357 -0.0167147 0)
(1.24176 -0.0170806 0)
(1.23992 -0.0174105 0)
(1.23806 -0.0177058 0)
(1.23618 -0.0179683 0)
(1.23428 -0.0181995 0)
(1.23235 -0.0184012 0)
(1.23041 -0.0185751 0)
(1.22846 -0.0187231 0)
(1.22649 -0.0188469 0)
(1.2245 -0.0189482 0)
(1.22251 -0.0190289 0)
(1.2205 -0.0190907 0)
(1.21847 -0.0191354 0)
(1.21644 -0.0191646 0)
(1.2144 -0.01918 0)
(1.21235 -0.0191832 0)
(1.21029 -0.0191757 0)
(1.20822 -0.0191593 0)
(1.20614 -0.0191353 0)
(1.20405 -0.0191052 0)
(1.20195 -0.0190704 0)
(1.19985 -0.0190323 0)
(1.19774 -0.0189924 0)
(1.19562 -0.0189518 0)
(1.1935 -0.018912 0)
(1.19136 -0.0188741 0)
(1.27234 0.00199881 0)
(1.27188 0.000855599 0)
(1.27131 -0.000307668 0)
(1.27061 -0.00147554 0)
(1.2698 -0.0026246 0)
(1.26889 -0.00374099 0)
(1.26791 -0.00481763 0)
(1.26685 -0.00585143 0)
(1.26572 -0.00684144 0)
(1.26454 -0.0077876 0)
(1.26329 -0.00869012 0)
(1.262 -0.00954923 0)
(1.26065 -0.0103651 0)
(1.25925 -0.0111378 0)
(1.25781 -0.0118676 0)
(1.25632 -0.0125545 0)
(1.25478 -0.0131989 0)
(1.25321 -0.013801 0)
(1.2516 -0.0143616 0)
(1.24995 -0.0148811 0)
(1.24826 -0.0153605 0)
(1.24655 -0.0158008 0)
(1.2448 -0.016203 0)
(1.24303 -0.0165684 0)
(1.24122 -0.0168984 0)
(1.2394 -0.0171945 0)
(1.23755 -0.0174582 0)
(1.23568 -0.0176911 0)
(1.23379 -0.017895 0)
(1.23188 -0.0180714 0)
(1.22995 -0.0182222 0)
(1.22801 -0.0183491 0)
(1.22606 -0.0184539 0)
(1.22409 -0.0185382 0)
(1.2221 -0.0186039 0)
(1.22011 -0.0186525 0)
(1.2181 -0.0186858 0)
(1.21608 -0.0187055 0)
(1.21405 -0.018713 0)
(1.21201 -0.01871 0)
(1.20996 -0.018698 0)
(1.2079 -0.0186784 0)
(1.20583 -0.0186528 0)
(1.20376 -0.0186226 0)
(1.20167 -0.018589 0)
(1.19958 -0.0185535 0)
(1.19748 -0.0185174 0)
(1.19537 -0.0184819 0)
(1.19325 -0.0184483 0)
(1.27239 0.0021492 0)
(1.27197 0.00104578 0)
(1.27145 -7.58126e-05 0)
(1.27081 -0.00120398 0)
(1.27007 -0.00231856 0)
(1.26923 -0.00340608 0)
(1.26831 -0.00445867 0)
(1.26731 -0.0054722 0)
(1.26625 -0.00644476 0)
(1.26512 -0.00737561 0)
(1.26393 -0.0082645 0)
(1.26268 -0.00911137 0)
(1.26139 -0.00991621 0)
(1.26004 -0.0106791 0)
(1.25864 -0.0114 0)
(1.2572 -0.0120791 0)
(1.25571 -0.0127166 0)
(1.25418 -0.0133129 0)
(1.25261 -0.0138685 0)
(1.251 -0.014384 0)
(1.24936 -0.0148603 0)
(1.24768 -0.0152981 0)
(1.24597 -0.0156987 0)
(1.24423 -0.0160632 0)
(1.24247 -0.0163929 0)
(1.24068 -0.0166892 0)
(1.23886 -0.0169538 0)
(1.23702 -0.017188 0)
(1.23517 -0.0173936 0)
(1.23329 -0.0175722 0)
(1.23139 -0.0177255 0)
(1.22948 -0.0178553 0)
(1.22755 -0.0179631 0)
(1.22561 -0.0180508 0)
(1.22365 -0.01812 0)
(1.22168 -0.0181724 0)
(1.2197 -0.0182096 0)
(1.2177 -0.0182332 0)
(1.2157 -0.0182448 0)
(1.21368 -0.018246 0)
(1.21165 -0.0182383 0)
(1.20961 -0.018223 0)
(1.20757 -0.0182017 0)
(1.20551 -0.0181758 0)
(1.20344 -0.0181465 0)
(1.20137 -0.0181153 0)
(1.19929 -0.0180834 0)
(1.19719 -0.0180521 0)
(1.19509 -0.0180227 0)
(1.27241 0.00228713 0)
(1.27202 0.00121936 0)
(1.27155 0.000136049 0)
(1.27097 -0.000954268 0)
(1.27029 -0.00203471 0)
(1.26952 -0.00309266 0)
(1.26866 -0.00412001 0)
(1.26772 -0.0051119 0)
(1.26671 -0.0060657 0)
(1.26564 -0.00698002 0)
(1.2645 -0.0078542 0)
(1.26331 -0.00868787 0)
(1.26206 -0.00948085 0)
(1.26076 -0.010233 0)
(1.25941 -0.0109444 0)
(1.25802 -0.011615 0)
(1.25657 -0.0122451 0)
(1.25509 -0.012835 0)
(1.25356 -0.0133851 0)
(1.25199 -0.013896 0)
(1.25039 -0.0143685 0)
(1.24875 -0.0148035 0)
(1.24708 -0.0152019 0)
(1.24538 -0.015565 0)
(1.24365 -0.0158939 0)
(1.2419 -0.0161901 0)
(1.24012 -0.0164551 0)
(1.23831 -0.0166902 0)
(1.23649 -0.0168972 0)
(1.23464 -0.0170776 0)
(1.23277 -0.0172331 0)
(1.23089 -0.0173654 0)
(1.22899 -0.017476 0)
(1.22707 -0.0175668 0)
(1.22514 -0.0176392 0)
(1.2232 -0.0176951 0)
(1.22124 -0.0177359 0)
(1.21927 -0.0177633 0)
(1.21729 -0.0177788 0)
(1.21529 -0.017784 0)
(1.21329 -0.0177803 0)
(1.21127 -0.0177691 0)
(1.20925 -0.0177519 0)
(1.20721 -0.0177301 0)
(1.20516 -0.017705 0)
(1.20311 -0.0176779 0)
(1.20104 -0.0176501 0)
(1.19896 -0.0176228 0)
(1.19688 -0.0175973 0)
(1.27241 0.00241316 0)
(1.27204 0.00137774 0)
(1.27162 0.00032971 0)
(1.27109 -0.000724704 0)
(1.27047 -0.00177169 0)
(1.26975 -0.00279982 0)
(1.26895 -0.00380109 0)
(1.26807 -0.00477026 0)
(1.26712 -0.00570414 0)
(1.2661 -0.00660085 0)
(1.26502 -0.00745931 0)
(1.26388 -0.00827887 0)
(1.26268 -0.00905914 0)
(1.26143 -0.0097999 0)
(1.26013 -0.010501 0)
(1.25878 -0.0111625 0)
(1.25738 -0.0117846 0)
(1.25594 -0.0123674 0)
(1.25445 -0.0129115 0)
(1.25293 -0.0134172 0)
(1.25136 -0.0138855 0)
(1.24977 -0.014317 0)
(1.24813 -0.0147128 0)
(1.24647 -0.015074 0)
(1.24478 -0.0154017 0)
(1.24306 -0.0156974 0)
(1.24131 -0.0159623 0)
(1.23954 -0.016198 0)
(1.23775 -0.016406 0)
(1.23593 -0.0165879 0)
(1.2341 -0.0167452 0)
(1.23224 -0.0168796 0)
(1.23037 -0.0169928 0)
(1.22848 -0.0170863 0)
(1.22658 -0.0171618 0)
(1.22466 -0.0172208 0)
(1.22273 -0.017265 0)
(1.22078 -0.0172959 0)
(1.21883 -0.0173151 0)
(1.21685 -0.017324 0)
(1.21487 -0.0173241 0)
(1.21288 -0.0173168 0)
(1.21087 -0.0173036 0)
(1.20886 -0.0172857 0)
(1.20683 -0.0172645 0)
(1.20479 -0.0172413 0)
(1.20274 -0.0172174 0)
(1.20069 -0.017194 0)
(1.19862 -0.0171723 0)
(1.27238 0.00252772 0)
(1.27204 0.00152204 0)
(1.27165 0.000506696 0)
(1.27118 -0.000513726 0)
(1.27061 -0.00152817 0)
(1.26995 -0.00252654 0)
(1.2692 -0.00350123 0)
(1.26838 -0.00444686 0)
(1.26748 -0.00535987 0)
(1.26652 -0.006238 0)
(1.26549 -0.00707982 0)
(1.2644 -0.0078844 0)
(1.26325 -0.00865118 0)
(1.26205 -0.00937977 0)
(1.26079 -0.01007 0)
(1.25948 -0.0107217 0)
(1.25813 -0.0113351 0)
(1.25673 -0.0119103 0)
(1.25529 -0.0124477 0)
(1.25381 -0.0129478 0)
(1.25228 -0.0134113 0)
(1.25072 -0.0138389 0)
(1.24913 -0.0142316 0)
(1.24751 -0.0145904 0)
(1.24585 -0.0149165 0)
(1.24416 -0.0152111 0)
(1.24245 -0.0154757 0)
(1.24072 -0.0157115 0)
(1.23895 -0.0159201 0)
(1.23717 -0.0161031 0)
(1.23537 -0.0162619 0)
(1.23354 -0.0163982 0)
(1.2317 -0.0165135 0)
(1.22984 -0.0166095 0)
(1.22796 -0.0166877 0)
(1.22607 -0.0167496 0)
(1.22417 -0.016797 0)
(1.22224 -0.0168312 0)
(1.22031 -0.0168538 0)
(1.21836 -0.0168662 0)
(1.2164 -0.0168699 0)
(1.21443 -0.0168663 0)
(1.21245 -0.0168568 0)
(1.21045 -0.0168427 0)
(1.20844 -0.0168253 0)
(1.20643 -0.0168058 0)
(1.2044 -0.0167856 0)
(1.20236 -0.0167659 0)
(1.2003 -0.0167478 0)
(1.27232 0.00263114 0)
(1.27201 0.00165314 0)
(1.27166 0.000668295 0)
(1.27123 -0.000319936 0)
(1.27071 -0.00130289 0)
(1.2701 -0.00227181 0)
(1.26941 -0.00321968 0)
(1.26864 -0.00414118 0)
(1.2678 -0.00503256 0)
(1.26688 -0.00589128 0)
(1.26591 -0.00671562 0)
(1.26486 -0.00750444 0)
(1.26376 -0.00825696 0)
(1.26261 -0.00897267 0)
(1.2614 -0.00965127 0)
(1.26014 -0.0102926 0)
(1.25883 -0.0108967 0)
(1.25747 -0.0114637 0)
(1.25607 -0.0119939 0)
(1.25463 -0.0124878 0)
(1.25315 -0.012946 0)
(1.25163 -0.0133692 0)
(1.25007 -0.0137583 0)
(1.24849 -0.0141143 0)
(1.24687 -0.0144383 0)
(1.24522 -0.0147315 0)
(1.24354 -0.0149952 0)
(1.24183 -0.0152308 0)
(1.24011 -0.0154397 0)
(1.23835 -0.0156233 0)
(1.23658 -0.0157833 0)
(1.23479 -0.0159211 0)
(1.23297 -0.0160383 0)
(1.23114 -0.0161365 0)
(1.22929 -0.0162171 0)
(1.22743 -0.0162817 0)
(1.22555 -0.016332 0)
(1.22365 -0.0163692 0)
(1.22174 -0.016395 0)
(1.21982 -0.0164107 0)
(1.21788 -0.0164179 0)
(1.21593 -0.0164177 0)
(1.21397 -0.0164117 0)
(1.21199 -0.0164012 0)
(1.21001 -0.0163873 0)
(1.20801 -0.0163715 0)
(1.206 -0.0163548 0)
(1.20398 -0.0163385 0)
(1.20194 -0.0163238 0)
(1.27224 0.00272371 0)
(1.27196 0.00177176 0)
(1.27165 0.000815596 0)
(1.27126 -0.000142089 0)
(1.27078 -0.00109464 0)
(1.27022 -0.0020346 0)
(1.26958 -0.00295563 0)
(1.26886 -0.00385262 0)
(1.26807 -0.00472179 0)
(1.2672 -0.00556041 0)
(1.26627 -0.00636655 0)
(1.26528 -0.00713887 0)
(1.26423 -0.00787644 0)
(1.26312 -0.0085786 0)
(1.26196 -0.00924495 0)
(1.26074 -0.00987526 0)
(1.25947 -0.0104695 0)
(1.25816 -0.0110277 0)
(1.2568 -0.0115502 0)
(1.2554 -0.0120373 0)
(1.25396 -0.0124897 0)
(1.25248 -0.012908 0)
(1.25096 -0.013293 0)
(1.24941 -0.0136457 0)
(1.24783 -0.0139672 0)
(1.24621 -0.0142585 0)
(1.24457 -0.014521 0)
(1.2429 -0.014756 0)
(1.2412 -0.0149647 0)
(1.23948 -0.0151488 0)
(1.23774 -0.0153096 0)
(1.23598 -0.0154486 0)
(1.23419 -0.0155673 0)
(1.23239 -0.0156674 0)
(1.23057 -0.0157502 0)
(1.22873 -0.0158172 0)
(1.22688 -0.01587 0)
(1.22501 -0.0159101 0)
(1.22312 -0.0159388 0)
(1.22122 -0.0159577 0)
(1.21931 -0.015968 0)
(1.21738 -0.0159711 0)
(1.21544 -0.0159685 0)
(1.21349 -0.0159613 0)
(1.21152 -0.0159508 0)
(1.20954 -0.0159383 0)
(1.20755 -0.015925 0)
(1.20555 -0.0159121 0)
(1.20353 -0.0159006 0)
(1.27215 0.00280566 0)
(1.27189 0.00187852 0)
(1.27161 0.000949522 0)
(1.27126 2.09109e-05 0)
(1.27082 -0.000902316 0)
(1.27031 -0.00181392 0)
(1.26971 -0.00270824 0)
(1.26904 -0.00358054 0)
(1.2683 -0.00442708 0)
(1.26748 -0.00524503 0)
(1.2666 -0.00603235 0)
(1.26565 -0.00678753 0)
(1.26465 -0.00750949 0)
(1.26359 -0.00819747 0)
(1.26247 -0.00885096 0)
(1.26129 -0.00946965 0)
(1.26007 -0.0100534 0)
(1.2588 -0.0106023 0)
(1.25748 -0.0111165 0)
(1.25612 -0.0115964 0)
(1.25472 -0.0120425 0)
(1.25328 -0.0124554 0)
(1.2518 -0.0128359 0)
(1.25029 -0.0131849 0)
(1.24874 -0.0135033 0)
(1.24716 -0.0137924 0)
(1.24555 -0.0140532 0)
(1.24391 -0.0142871 0)
(1.24225 -0.0144954 0)
(1.24056 -0.0146795 0)
(1.23885 -0.0148408 0)
(1.23712 -0.0149807 0)
(1.23536 -0.0151007 0)
(1.23359 -0.0152023 0)
(1.23179 -0.015287 0)
(1.22998 -0.0153562 0)
(1.22815 -0.0154113 0)
(1.22631 -0.015454 0)
(1.22445 -0.0154854 0)
(1.22257 -0.0155071 0)
(1.22068 -0.0155204 0)
(1.21878 -0.0155266 0)
(1.21686 -0.0155271 0)
(1.21493 -0.0155231 0)
(1.21298 -0.0155158 0)
(1.21102 -0.0155065 0)
(1.20905 -0.0154964 0)
(1.20707 -0.0154866 0)
(1.20507 -0.0154783 0)
(1.27203 0.00287718 0)
(1.2718 0.00197391 0)
(1.27155 0.00107086 0)
(1.27123 0.000170032 0)
(1.27083 -0.000724906 0)
(1.27036 -0.00160879 0)
(1.26981 -0.00247669 0)
(1.26919 -0.00332425 0)
(1.26849 -0.00414786 0)
(1.26772 -0.00494473 0)
(1.26688 -0.00571271 0)
(1.26599 -0.00645018 0)
(1.26502 -0.00715595 0)
(1.26401 -0.00782917 0)
(1.26293 -0.00846923 0)
(1.2618 -0.00907574 0)
(1.26062 -0.00964852 0)
(1.25939 -0.0101876 0)
(1.25812 -0.010693 0)
(1.2568 -0.0111651 0)
(1.25543 -0.0116044 0)
(1.25403 -0.0120114 0)
(1.25259 -0.0123869 0)
(1.25111 -0.0127317 0)
(1.2496 -0.0130468 0)
(1.24805 -0.0133331 0)
(1.24648 -0.0135919 0)
(1.24488 -0.0138244 0)
(1.24324 -0.0140318 0)
(1.24159 -0.0142156 0)
(1.23991 -0.014377 0)
(1.2382 -0.0145174 0)
(1.23648 -0.0146384 0)
(1.23473 -0.0147413 0)
(1.23296 -0.0148276 0)
(1.23118 -0.0148987 0)
(1.22938 -0.014956 0)
(1.22756 -0.0150009 0)
(1.22572 -0.0150349 0)
(1.22387 -0.0150592 0)
(1.22201 -0.0150753 0)
(1.22012 -0.0150843 0)
(1.21823 -0.0150877 0)
(1.21632 -0.0150867 0)
(1.21439 -0.0150824 0)
(1.21246 -0.0150762 0)
(1.21051 -0.015069 0)
(1.20854 -0.0150622 0)
(1.20656 -0.0150568 0)
(1.2719 0.00293848 0)
(1.27169 0.00205836 0)
(1.27147 0.00118028 0)
(1.27119 0.000306122 0)
(1.27082 -0.000561484 0)
(1.27039 -0.00141833 0)
(1.26988 -0.00226016 0)
(1.2693 -0.00308303 0)
(1.26864 -0.00388358 0)
(1.26792 -0.00465904 0)
(1.26713 -0.00540725 0)
(1.26628 -0.00612653 0)
(1.26536 -0.0068156 0)
(1.26438 -0.00747352 0)
(1.26335 -0.00809961 0)
(1.26226 -0.00869342 0)
(1.26113 -0.00925469 0)
(1.25994 -0.00978336 0)
(1.2587 -0.0102795 0)
(1.25742 -0.0107434 0)
(1.2561 -0.0111754 0)
(1.25473 -0.0115761 0)
(1.25333 -0.0119461 0)
(1.25189 -0.0122863 0)
(1.25041 -0.0125975 0)
(1.2489 -0.0128808 0)
(1.24736 -0.0131371 0)
(1.24579 -0.0133678 0)
(1.24419 -0.013574 0)
(1.24256 -0.0137571 0)
(1.24091 -0.0139183 0)
(1.23924 -0.014059 0)
(1.23754 -0.0141806 0)
(1.23582 -0.0142845 0)
(1.23409 -0.0143721 0)
(1.23233 -0.0144448 0)
(1.23055 -0.014504 0)
(1.22876 -0.014551 0)
(1.22695 -0.0145872 0)
(1.22512 -0.014614 0)
(1.22328 -0.0146326 0)
(1.22142 -0.0146443 0)
(1.21955 -0.0146505 0)
(1.21766 -0.0146522 0)
(1.21576 -0.0146508 0)
(1.21384 -0.0146473 0)
(1.21191 -0.014643 0)
(1.20996 -0.014639 0)
(1.208 -0.0146363 0)
(1.27175 0.00298975 0)
(1.27157 0.00213224 0)
(1.27138 0.00127835 0)
(1.27112 0.00042993 0)
(1.27079 -0.000411214 0)
(1.2704 -0.00124169 0)
(1.26992 -0.00205785 0)
(1.26938 -0.0028562 0)
(1.26877 -0.00363361 0)
(1.26809 -0.00438744 0)
(1.26734 -0.00511556 0)
(1.26653 -0.00581624 0)
(1.26566 -0.00648816 0)
(1.26472 -0.00713032 0)
(1.26373 -0.00774195 0)
(1.26269 -0.00832256 0)
(1.26159 -0.00887183 0)
(1.26044 -0.00938964 0)
(1.25924 -0.00987602 0)
(1.258 -0.0103312 0)
(1.25671 -0.0107555 0)
(1.25539 -0.0111494 0)
(1.25402 -0.0115135 0)
(1.25261 -0.0118486 0)
(1.25117 -0.0121556 0)
(1.2497 -0.0124353 0)
(1.24819 -0.0126889 0)
(1.24665 -0.0129174 0)
(1.24508 -0.0131221 0)
(1.24349 -0.0133041 0)
(1.24187 -0.0134648 0)
(1.24023 -0.0136054 0)
(1.23856 -0.0137274 0)
(1.23687 -0.013832 0)
(1.23516 -0.0139206 0)
(1.23343 -0.0139947 0)
(1.23168 -0.0140554 0)
(1.22991 -0.0141043 0)
(1.22812 -0.0141426 0)
(1.22632 -0.0141715 0)
(1.2245 -0.0141925 0)
(1.22267 -0.0142067 0)
(1.22082 -0.0142153 0)
(1.21895 -0.0142197 0)
(1.21707 -0.0142209 0)
(1.21517 -0.0142201 0)
(1.21326 -0.0142184 0)
(1.21134 -0.014217 0)
(1.20939 -0.0142169 0)
(1.27159 0.00303114 0)
(1.27143 0.00219589 0)
(1.27127 0.00136559 0)
(1.27104 0.000542113 0)
(1.27074 -0.000273341 0)
(1.27038 -0.00107807 0)
(1.26994 -0.00186899 0)
(1.26944 -0.00264303 0)
(1.26887 -0.00339734 0)
(1.26823 -0.00412942 0)
(1.26752 -0.00483719 0)
(1.26675 -0.00551894 0)
(1.26592 -0.00617333 0)
(1.26502 -0.00679929 0)
(1.26407 -0.00739603 0)
(1.26307 -0.00796299 0)
(1.26201 -0.0084998 0)
(1.2609 -0.00900629 0)
(1.25974 -0.00948246 0)
(1.25854 -0.00992845 0)
(1.25729 -0.0103446 0)
(1.256 -0.0107313 0)
(1.25467 -0.0110891 0)
(1.2533 -0.0114187 0)
(1.25189 -0.011721 0)
(1.25045 -0.0119969 0)
(1.24897 -0.0122472 0)
(1.24747 -0.0124732 0)
(1.24593 -0.0126759 0)
(1.24437 -0.0128566 0)
(1.24278 -0.0130164 0)
(1.24116 -0.0131567 0)
(1.23953 -0.0132787 0)
(1.23786 -0.0133837 0)
(1.23618 -0.0134732 0)
(1.23448 -0.0135483 0)
(1.23275 -0.0136104 0)
(1.23101 -0.0136609 0)
(1.22925 -0.013701 0)
(1.22747 -0.0137319 0)
(1.22568 -0.013755 0)
(1.22387 -0.0137715 0)
(1.22204 -0.0137825 0)
(1.22019 -0.0137892 0)
(1.21834 -0.0137929 0)
(1.21646 -0.0137945 0)
(1.21457 -0.0137953 0)
(1.21266 -0.0137963 0)
(1.21074 -0.0137986 0)
(1.27142 0.00306285 0)
(1.27128 0.0022496 0)
(1.27114 0.00144243 0)
(1.27094 0.000643255 0)
(1.27067 -0.000147183 0)
(1.27034 -0.000926755 0)
(1.26994 -0.00169288 0)
(1.26947 -0.00244286 0)
(1.26894 -0.00317415 0)
(1.26834 -0.00388441 0)
(1.26767 -0.00457166 0)
(1.26694 -0.00523423 0)
(1.26614 -0.00587075 0)
(1.26529 -0.00648015 0)
(1.26438 -0.0070616 0)
(1.26341 -0.00761449 0)
(1.26239 -0.00813842 0)
(1.26132 -0.00863317 0)
(1.2602 -0.00909868 0)
(1.25903 -0.00953507 0)
(1.25782 -0.0099426 0)
(1.25657 -0.0103216 0)
(1.25527 -0.0106727 0)
(1.25393 -0.0109965 0)
(1.25256 -0.0112938 0)
(1.25115 -0.0115654 0)
(1.24971 -0.0118122 0)
(1.24824 -0.0120353 0)
(1.24673 -0.0122357 0)
(1.2452 -0.0124147 0)
(1.24364 -0.0125733 0)
(1.24206 -0.0127129 0)
(1.24045 -0.0128347 0)
(1.23881 -0.0129399 0)
(1.23716 -0.0130298 0)
(1.23548 -0.0131058 0)
(1.23378 -0.013169 0)
(1.23207 -0.0132209 0)
(1.23033 -0.0132625 0)
(1.22858 -0.0132952 0)
(1.22681 -0.0133202 0)
(1.22502 -0.0133387 0)
(1.22321 -0.0133519 0)
(1.22139 -0.0133609 0)
(1.21955 -0.0133668 0)
(1.2177 -0.0133707 0)
(1.21583 -0.0133738 0)
(1.21394 -0.0133771 0)
(1.21204 -0.0133816 0)
(1.27124 0.00308504 0)
(1.27112 0.00229364 0)
(1.27101 0.00150928 0)
(1.27083 0.000733876 0)
(1.27059 -3.2124e-05 0)
(1.27029 -0.000787072 0)
(1.26992 -0.00152881 0)
(1.26949 -0.00225503 0)
(1.26899 -0.00296342 0)
(1.26842 -0.00365187 0)
(1.26779 -0.00431849 0)
(1.26709 -0.00496167 0)
(1.26634 -0.00558006 0)
(1.26552 -0.00617258 0)
(1.26465 -0.00673839 0)
(1.26372 -0.00727684 0)
(1.26274 -0.00778749 0)
(1.2617 -0.0082701 0)
(1.26062 -0.00872456 0)
(1.25949 -0.00915095 0)
(1.25831 -0.00954947 0)
(1.25709 -0.00992049 0)
(1.25583 -0.0102645 0)
(1.25453 -0.010582 0)
(1.25319 -0.0108738 0)
(1.25182 -0.0111408 0)
(1.25041 -0.0113836 0)
(1.24896 -0.0116035 0)
(1.24749 -0.0118013 0)
(1.24599 -0.0119783 0)
(1.24446 -0.0121354 0)
(1.2429 -0.012274 0)
(1.24132 -0.0123953 0)
(1.23971 -0.0125004 0)
(1.23809 -0.0125906 0)
(1.23644 -0.0126671 0)
(1.23476 -0.0127312 0)
(1.23307 -0.0127842 0)
(1.23136 -0.0128272 0)
(1.22963 -0.0128615 0)
(1.22789 -0.0128882 0)
(1.22612 -0.0129085 0)
(1.22434 -0.0129237 0)
(1.22254 -0.0129347 0)
(1.22072 -0.0129427 0)
(1.21889 -0.0129487 0)
(1.21704 -0.0129539 0)
(1.21517 -0.0129593 0)
(1.21329 -0.0129659 0)
(1.27104 0.00309789 0)
(1.27095 0.00232827 0)
(1.27086 0.00156648 0)
(1.27071 0.00081444 0)
(1.2705 7.23928e-05 0)
(1.27022 -0.000658404 0)
(1.26988 -0.00137616 0)
(1.26948 -0.00207889 0)
(1.26901 -0.00276456 0)
(1.26848 -0.00343124 0)
(1.26788 -0.00407716 0)
(1.26722 -0.0047008 0)
(1.2665 -0.00530084 0)
(1.26573 -0.00587622 0)
(1.26489 -0.00642608 0)
(1.264 -0.00694975 0)
(1.26305 -0.00744678 0)
(1.26205 -0.00791687 0)
(1.26101 -0.00835991 0)
(1.25991 -0.00877591 0)
(1.25877 -0.00916506 0)
(1.25758 -0.00952766 0)
(1.25635 -0.00986414 0)
(1.25509 -0.0101751 0)
(1.25378 -0.0104611 0)
(1.25244 -0.010723 0)
(1.25106 -0.0109616 0)
(1.24965 -0.0111779 0)
(1.2482 -0.0113728 0)
(1.24673 -0.0115474 0)
(1.24523 -0.0117028 0)
(1.2437 -0.0118401 0)
(1.24215 -0.0119605 0)
(1.24057 -0.0120652 0)
(1.23897 -0.0121554 0)
(1.23735 -0.0122323 0)
(1.2357 -0.0122971 0)
(1.23404 -0.0123509 0)
(1.23235 -0.0123951 0)
(1.23064 -0.0124307 0)
(1.22892 -0.0124589 0)
(1.22718 -0.0124809 0)
(1.22542 -0.0124978 0)
(1.22364 -0.0125107 0)
(1.22185 -0.0125206 0)
(1.22003 -0.0125286 0)
(1.2182 -0.0125357 0)
(1.21636 -0.012543 0)
(1.21449 -0.0125514 0)
(1.27084 0.00310158 0)
(1.27077 0.00235373 0)
(1.2707 0.00161435 0)
(1.27058 0.000885369 0)
(1.27039 0.000166873 0)
(1.27014 -0.000540184 0)
(1.26983 -0.00123432 0)
(1.26945 -0.00191385 0)
(1.26902 -0.00257697 0)
(1.26852 -0.00322195 0)
(1.26795 -0.00384717 0)
(1.26733 -0.00445116 0)
(1.26664 -0.00503269 0)
(1.2659 -0.0055907 0)
(1.2651 -0.00612434 0)
(1.26424 -0.00663294 0)
(1.26333 -0.00711602 0)
(1.26237 -0.00757327 0)
(1.26135 -0.00800453 0)
(1.26029 -0.00840979 0)
(1.25919 -0.0087892 0)
(1.25803 -0.00914303 0)
(1.25684 -0.00947166 0)
(1.2556 -0.00977562 0)
(1.25433 -0.0100555 0)
(1.25302 -0.0103121 0)
(1.25167 -0.0105461 0)
(1.25029 -0.0107585 0)
(1.24888 -0.0109501 0)
(1.24743 -0.0111221 0)
(1.24596 -0.0112754 0)
(1.24446 -0.0114111 0)
(1.24294 -0.0115305 0)
(1.24139 -0.0116345 0)
(1.23981 -0.0117244 0)
(1.23821 -0.0118014 0)
(1.23659 -0.0118666 0)
(1.23495 -0.0119211 0)
(1.23329 -0.0119662 0)
(1.23161 -0.012003 0)
(1.22991 -0.0120325 0)
(1.22819 -0.012056 0)
(1.22645 -0.0120744 0)
(1.2247 -0.0120889 0)
(1.22292 -0.0121005 0)
(1.22113 -0.0121103 0)
(1.21932 -0.0121192 0)
(1.21749 -0.0121283 0)
(1.21565 -0.0121384 0)
(1.27064 0.00309628 0)
(1.27059 0.00237025 0)
(1.27054 0.00165321 0)
(1.27043 0.000947048 0)
(1.27027 0.00025178 0)
(1.27004 -0.000431889 0)
(1.26976 -0.00110274 0)
(1.26941 -0.00175932 0)
(1.26901 -0.00240009 0)
(1.26854 -0.00302348 0)
(1.26801 -0.00362799 0)
(1.26741 -0.00421229 0)
(1.26676 -0.00477517 0)
(1.26605 -0.00531563 0)
(1.26528 -0.00583282 0)
(1.26446 -0.00632609 0)
(1.26358 -0.00679494 0)
(1.26265 -0.00723904 0)
(1.26167 -0.0076582 0)
(1.26064 -0.00805239 0)
(1.25957 -0.00842173 0)
(1.25845 -0.00876644 0)
(1.25729 -0.00908688 0)
(1.25608 -0.00938353 0)
(1.25484 -0.00965695 0)
(1.25356 -0.00990783 0)
(1.25224 -0.0101369 0)
(1.25089 -0.0103451 0)
(1.24951 -0.0105332 0)
(1.24809 -0.0107022 0)
(1.24665 -0.0108531 0)
(1.24518 -0.0109871 0)
(1.24368 -0.011105 0)
(1.24216 -0.0112082 0)
(1.24061 -0.0112976 0)
(1.23904 -0.0113744 0)
(1.23744 -0.0114397 0)
(1.23582 -0.0114948 0)
(1.23419 -0.0115405 0)
(1.23253 -0.0115782 0)
(1.23085 -0.0116089 0)
(1.22916 -0.0116336 0)
(1.22744 -0.0116534 0)
(1.22571 -0.0116694 0)
(1.22395 -0.0116826 0)
(1.22218 -0.011694 0)
(1.22039 -0.0117045 0)
(1.21859 -0.0117151 0)
(1.21676 -0.0117268 0)
(1.27043 0.00308218 0)
(1.2704 0.00237805 0)
(1.27037 0.00168334 0)
(1.27028 0.00099983 0)
(1.27014 0.000327538 0)
(1.26994 -0.000333036 0)
(1.26968 -0.000980879 0)
(1.26936 -0.00161478 0)
(1.26898 -0.00223337 0)
(1.26854 -0.00283527 0)
(1.26804 -0.00341913 0)
(1.26748 -0.00398369 0)
(1.26686 -0.00452784 0)
(1.26618 -0.0050506 0)
(1.26544 -0.00555116 0)
(1.26465 -0.00602887 0)
(1.2638 -0.00648323 0)
(1.26291 -0.0069139 0)
(1.26196 -0.00732067 0)
(1.26096 -0.00770349 0)
(1.25992 -0.00806244 0)
(1.25883 -0.00839772 0)
(1.2577 -0.00870965 0)
(1.25653 -0.00899866 0)
(1.25531 -0.0092653 0)
(1.25406 -0.00951019 0)
(1.25278 -0.00973405 0)
(1.25146 -0.00993768 0)
(1.2501 -0.0101219 0)
(1.24872 -0.0102877 0)
(1.2473 -0.010436 0)
(1.24586 -0.0105678 0)
(1.24438 -0.0106842 0)
(1.24289 -0.0107862 0)
(1.24136 -0.0108748 0)
(1.23982 -0.0109513 0)
(1.23825 -0.0110166 0)
(1.23665 -0.0110718 0)
(1.23504 -0.0111181 0)
(1.23341 -0.0111565 0)
(1.23175 -0.0111881 0)
(1.23008 -0.0112139 0)
(1.22839 -0.0112349 0)
(1.22667 -0.0112522 0)
(1.22494 -0.0112668 0)
(1.22319 -0.0112796 0)
(1.22142 -0.0112915 0)
(1.21964 -0.0113036 0)
(1.21783 -0.0113166 0)
(1.27021 0.00305946 0)
(1.2702 0.00237737 0)
(1.27019 0.001705 0)
(1.27013 0.00104405 0)
(1.27 0.000394539 0)
(1.26983 -0.000243175 0)
(1.26959 -0.000868262 0)
(1.2693 -0.00147969 0)
(1.26894 -0.00207629 0)
(1.26853 -0.00265683 0)
(1.26805 -0.00322008 0)
(1.26752 -0.0037649 0)
(1.26693 -0.00429024 0)
(1.26628 -0.00479519 0)
(1.26557 -0.00527896 0)
(1.26481 -0.00574092 0)
(1.264 -0.00618057 0)
(1.26313 -0.00659755 0)
(1.26222 -0.00699167 0)
(1.26125 -0.00736284 0)
(1.26024 -0.00771112 0)
(1.25918 -0.00803667 0)
(1.25808 -0.00833979 0)
(1.25694 -0.00862087 0)
(1.25576 -0.00888042 0)
(1.25453 -0.00911902 0)
(1.25328 -0.00933736 0)
(1.25198 -0.00953617 0)
(1.25066 -0.00971629 0)
(1.2493 -0.00987857 0)
(1.24791 -0.010024 0)
(1.24649 -0.0101534 0)
(1.24505 -0.0102679 0)
(1.24358 -0.0103685 0)
(1.24208 -0.0104561 0)
(1.24056 -0.010532 0)
(1.23901 -0.010597 0)
(1.23744 -0.0106523 0)
(1.23585 -0.0106989 0)
(1.23424 -0.0107378 0)
(1.23261 -0.0107701 0)
(1.23096 -0.0107968 0)
(1.22929 -0.0108189 0)
(1.2276 -0.0108373 0)
(1.22589 -0.0108531 0)
(1.22416 -0.0108671 0)
(1.22241 -0.0108803 0)
(1.22064 -0.0108936 0)
(1.21885 -0.0109079 0)
(1.26999 0.00302831 0)
(1.27 0.00236841 0)
(1.27001 0.00171844 0)
(1.26997 0.00108001 0)
(1.26986 0.000453152 0)
(1.26971 -0.00016189 0)
(1.26949 -0.000764426 0)
(1.26922 -0.00135359 0)
(1.26889 -0.00192835 0)
(1.2685 -0.00248764 0)
(1.26806 -0.00303035 0)
(1.26755 -0.00355544 0)
(1.26699 -0.00406194 0)
(1.26636 -0.00454899 0)
(1.26569 -0.00501584 0)
(1.26496 -0.00546188 0)
(1.26417 -0.00588661 0)
(1.26334 -0.00628971 0)
(1.26245 -0.00667093 0)
(1.26151 -0.00703019 0)
(1.26053 -0.00736752 0)
(1.2595 -0.00768307 0)
(1.25843 -0.0079771 0)
(1.25732 -0.00824997 0)
(1.25616 -0.00850214 0)
(1.25497 -0.00873418 0)
(1.25374 -0.0089467 0)
(1.25248 -0.00914043 0)
(1.25118 -0.00931614 0)
(1.24985 -0.00947467 0)
(1.24848 -0.00961688 0)
(1.24709 -0.0097437 0)
(1.24567 -0.00985608 0)
(1.24423 -0.00995501 0)
(1.24275 -0.0100415 0)
(1.24126 -0.0101165 0)
(1.23973 -0.010181 0)
(1.23819 -0.0102361 0)
(1.23662 -0.0102829 0)
(1.23504 -0.0103221 0)
(1.23343 -0.010355 0)
(1.2318 -0.0103824 0)
(1.23015 -0.0104053 0)
(1.22848 -0.0104247 0)
(1.22679 -0.0104415 0)
(1.22508 -0.0104566 0)
(1.22335 -0.0104709 0)
(1.2216 -0.0104853 0)
(1.21983 -0.0105007 0)
(1.26977 0.00298893 0)
(1.2698 0.0023514 0)
(1.26983 0.00172393 0)
(1.2698 0.00110801 0)
(1.26972 0.00050372 0)
(1.26958 -8.87879e-05 0)
(1.26939 -0.000668937 0)
(1.26914 -0.00123599 0)
(1.26883 -0.00178908 0)
(1.26847 -0.00232723 0)
(1.26804 -0.00284947 0)
(1.26756 -0.00335485 0)
(1.26703 -0.00384249 0)
(1.26643 -0.00431157 0)
(1.26578 -0.00476139 0)
(1.26508 -0.00519136 0)
(1.26432 -0.00560102 0)
(1.26351 -0.00599002 0)
(1.26266 -0.00635814 0)
(1.26175 -0.00670526 0)
(1.26079 -0.00703141 0)
(1.2598 -0.0073367 0)
(1.25875 -0.00762138 0)
(1.25767 -0.00788576 0)
(1.25654 -0.0081303 0)
(1.25537 -0.00835549 0)
(1.25417 -0.00856195 0)
(1.25293 -0.00875033 0)
(1.25166 -0.00892138 0)
(1.25036 -0.00907588 0)
(1.24902 -0.00921468 0)
(1.24766 -0.00933864 0)
(1.24626 -0.00944868 0)
(1.24484 -0.00954573 0)
(1.24339 -0.00963076 0)
(1.24192 -0.00970472 0)
(1.24042 -0.00976859 0)
(1.2389 -0.00982335 0)
(1.23735 -0.00986996 0)
(1.23579 -0.0099094 0)
(1.2342 -0.00994262 0)
(1.23259 -0.00997057 0)
(1.23096 -0.00999418 0)
(1.22932 -0.0100144 0)
(1.22765 -0.010032 0)
(1.22596 -0.010048 0)
(1.22425 -0.0100633 0)
(1.22252 -0.0100786 0)
(1.22077 -0.0100949 0)
(1.26955 0.00294154 0)
(1.2696 0.00232656 0)
(1.26964 0.00172171 0)
(1.26963 0.00112833 0)
(1.26957 0.000546571 0)
(1.26945 -2.34984e-05 0)
(1.26927 -0.000581389 0)
(1.26905 -0.00112648 0)
(1.26876 -0.001658 0)
(1.26842 -0.00217512 0)
(1.26802 -0.00267696 0)
(1.26756 -0.00316267 0)
(1.26705 -0.00363143 0)
(1.26648 -0.00408249 0)
(1.26586 -0.0045152 0)
(1.26518 -0.004929 0)
(1.26445 -0.00532344 0)
(1.26367 -0.00569817 0)
(1.26284 -0.00605299 0)
(1.26196 -0.00638776 0)
(1.26103 -0.0067025 0)
(1.26006 -0.0069973 0)
(1.25905 -0.00727238 0)
(1.25799 -0.00752805 0)
(1.25689 -0.00776469 0)
(1.25575 -0.0079828 0)
(1.25457 -0.00818293 0)
(1.25336 -0.00836572 0)
(1.25211 -0.00853186 0)
(1.25083 -0.0086821 0)
(1.24952 -0.00881724 0)
(1.24818 -0.00893811 0)
(1.24681 -0.00904558 0)
(1.24541 -0.00914055 0)
(1.24399 -0.00922393 0)
(1.24254 -0.00929665 0)
(1.24107 -0.00935964 0)
(1.23957 -0.00941383 0)
(1.23805 -0.00946017 0)
(1.2365 -0.00949959 0)
(1.23494 -0.009533 0)
(1.23335 -0.00956131 0)
(1.23174 -0.00958544 0)
(1.23011 -0.00960625 0)
(1.22847 -0.00962462 0)
(1.2268 -0.00964141 0)
(1.22511 -0.00965746 0)
(1.2234 -0.00967359 0)
(1.22166 -0.0096906 0)
(1.26933 0.00288632 0)
(1.2694 0.00229411 0)
(1.26946 0.00171203 0)
(1.26946 0.00114126 0)
(1.26941 0.00058202 0)
(1.26931 3.43302e-05 0)
(1.26916 -0.000501395 0)
(1.26895 -0.00102462 0)
(1.26868 -0.0015347 0)
(1.26836 -0.00203087 0)
(1.26798 -0.00251238 0)
(1.26755 -0.00297845 0)
(1.26706 -0.00342833 0)
(1.26652 -0.00386135 0)
(1.26592 -0.00427688 0)
(1.26527 -0.0046744 0)
(1.26456 -0.00505348 0)
(1.26381 -0.00541381 0)
(1.263 -0.00575515 0)
(1.26215 -0.00607739 0)
(1.26125 -0.00638051 0)
(1.2603 -0.00666461 0)
(1.25931 -0.00692988 0)
(1.25828 -0.00717659 0)
(1.25721 -0.00740511 0)
(1.25609 -0.00761589 0)
(1.25494 -0.00780947 0)
(1.25376 -0.00798643 0)
(1.25254 -0.00814743 0)
(1.25128 -0.00829318 0)
(1.24999 -0.00842444 0)
(1.24868 -0.008542 0)
(1.24733 -0.00864669 0)
(1.24596 -0.00873936 0)
(1.24456 -0.00882089 0)
(1.24313 -0.00889217 0)
(1.24168 -0.00895408 0)
(1.2402 -0.00900753 0)
(1.2387 -0.00905341 0)
(1.23718 -0.00909263 0)
(1.23563 -0.00912606 0)
(1.23407 -0.00915457 0)
(1.23248 -0.00917905 0)
(1.23087 -0.00920033 0)
(1.22924 -0.00921927 0)
(1.22759 -0.00923667 0)
(1.22592 -0.00925335 0)
(1.22423 -0.00927011 0)
(1.22252 -0.00928773 0)
(1.26911 0.00282352 0)
(1.2692 0.00225429 0)
(1.26927 0.00169513 0)
(1.26929 0.00114706 0)
(1.26926 0.00061037 0)
(1.26918 8.5035e-05 0)
(1.26904 -0.000428586 0)
(1.26885 -0.000930035 0)
(1.2686 -0.00141874 0)
(1.2683 -0.00189406 0)
(1.26794 -0.00235529 0)
(1.26753 -0.00280175 0)
(1.26706 -0.00323277 0)
(1.26654 -0.00364771 0)
(1.26597 -0.004046 0)
(1.26534 -0.00442717 0)
(1.26466 -0.00479079 0)
(1.26393 -0.00513657 0)
(1.26315 -0.00546429 0)
(1.26232 -0.00577382 0)
(1.26144 -0.00606515 0)
(1.26052 -0.00633836 0)
(1.25956 -0.0065936 0)
(1.25855 -0.00683115 0)
(1.2575 -0.00705133 0)
(1.25641 -0.00725457 0)
(1.25529 -0.00744137 0)
(1.25412 -0.00761228 0)
(1.25293 -0.00776792 0)
(1.2517 -0.00790896 0)
(1.25043 -0.00803613 0)
(1.24914 -0.00815017 0)
(1.24782 -0.00825187 0)
(1.24646 -0.00834205 0)
(1.24509 -0.00842153 0)
(1.24368 -0.00849118 0)
(1.24225 -0.00855183 0)
(1.2408 -0.00860436 0)
(1.23932 -0.00864961 0)
(1.23782 -0.00868845 0)
(1.23629 -0.00872174 0)
(1.23475 -0.0087503 0)
(1.23318 -0.00877497 0)
(1.23159 -0.00879657 0)
(1.22998 -0.00881591 0)
(1.22835 -0.00883377 0)
(1.2267 -0.00885095 0)
(1.22502 -0.0088682 0)
(1.22333 -0.00888627 0)
(1.26889 0.00275334 0)
(1.269 0.00220733 0)
(1.26908 0.00167126 0)